 Entering Gaussian System, Link 0=/home/mamin/g09/./g09
 Input=ser.com
 Output=ser.log
 Initial command:
 /home/mamin/g09/l1.exe /home/mamin/SOD/scr/Gau-32406.inp -scrdir=/home/mamin/SOD/scr/
 Entering Link 1 = /home/mamin/g09/l1.exe PID=     32408.
  
 Copyright (c) 1988,1990,1992,1993,1995,1998,2003,2009, Gaussian, Inc.
                  All Rights Reserved.
  
 This is part of the Gaussian(R) 09 program.  It is based on
 the Gaussian(R) 03 system (copyright 2003, Gaussian, Inc.),
 the Gaussian(R) 98 system (copyright 1998, Gaussian, Inc.),
 the Gaussian(R) 94 system (copyright 1995, Gaussian, Inc.),
 the Gaussian 92(TM) system (copyright 1992, Gaussian, Inc.),
 the Gaussian 90(TM) system (copyright 1990, Gaussian, Inc.),
 the Gaussian 88(TM) system (copyright 1988, Gaussian, Inc.),
 the Gaussian 86(TM) system (copyright 1986, Carnegie Mellon
 University), and the Gaussian 82(TM) system (copyright 1983,
 Carnegie Mellon University). Gaussian is a federally registered
 trademark of Gaussian, Inc.
  
 This software contains proprietary and confidential information,
 including trade secrets, belonging to Gaussian, Inc.
  
 This software is provided under written license and may be
 used, copied, transmitted, or stored only in accord with that
 written license.
  
 The following legend is applicable only to US Government
 contracts under FAR:
  
                    RESTRICTED RIGHTS LEGEND
  
 Use, reproduction and disclosure by the US Government is
 subject to restrictions as set forth in subparagraphs (a)
 and (c) of the Commercial Computer Software - Restricted
 Rights clause in FAR 52.227-19.
  
 Gaussian, Inc.
 340 Quinnipiac St., Bldg. 40, Wallingford CT 06492
  
  
 ---------------------------------------------------------------
 Warning -- This program may not be used in any manner that
 competes with the business of Gaussian, Inc. or will provide
 assistance to any competitor of Gaussian, Inc.  The licensee
 of this program is prohibited from giving any competitor of
 Gaussian, Inc. access to this program.  By using this program,
 the user acknowledges that Gaussian, Inc. is engaged in the
 business of creating and licensing software in the field of
 computational chemistry and represents and warrants to the
 licensee that it is not a competitor of Gaussian, Inc. and that
 it will not use this program in any manner prohibited above.
 ---------------------------------------------------------------
  

 Cite this work as:
 Gaussian 09, Revision A.02,
 M. J. Frisch, G. W. Trucks, H. B. Schlegel, G. E. Scuseria, 
 M. A. Robb, J. R. Cheeseman, G. Scalmani, V. Barone, B. Mennucci, 
 G. A. Petersson, H. Nakatsuji, M. Caricato, X. Li, H. P. Hratchian, 
 A. F. Izmaylov, J. Bloino, G. Zheng, J. L. Sonnenberg, M. Hada, 
 M. Ehara, K. Toyota, R. Fukuda, J. Hasegawa, M. Ishida, T. Nakajima, 
 Y. Honda, O. Kitao, H. Nakai, T. Vreven, J. A. Montgomery, Jr., 
 J. E. Peralta, F. Ogliaro, M. Bearpark, J. J. Heyd, E. Brothers, 
 K. N. Kudin, V. N. Staroverov, R. Kobayashi, J. Normand, 
 K. Raghavachari, A. Rendell, J. C. Burant, S. S. Iyengar, J. Tomasi, 
 M. Cossi, N. Rega, J. M. Millam, M. Klene, J. E. Knox, J. B. Cross, 
 V. Bakken, C. Adamo, J. Jaramillo, R. Gomperts, R. E. Stratmann, 
 O. Yazyev, A. J. Austin, R. Cammi, C. Pomelli, J. W. Ochterski, 
 R. L. Martin, K. Morokuma, V. G. Zakrzewski, G. A. Voth, 
 P. Salvador, J. J. Dannenberg, S. Dapprich, A. D. Daniels, 
 O. Farkas, J. B. Foresman, J. V. Ortiz, J. Cioslowski, 
 and D. J. Fox, Gaussian, Inc., Wallingford CT, 2009.
 
 ******************************************
 Gaussian 09:  EM64L-G09RevA.02 11-Jun-2009
                 1-Feb-2022 
 ******************************************
 %nprocshared=24
 Will use up to   24 processors via shared memory.
 %mem=6GB
 %chk=serine.chk
 ----------------------------------------------
 #p b3lyp/6-31+g(d,p) geom=connectivity pop=nbo
 ----------------------------------------------
 1/38=1,57=2/1;
 2/12=2,17=6,18=5,40=1/2;
 3/5=1,6=6,7=111,11=2,16=1,25=1,30=1,74=-5/1,2,3;
 4//1;
 5/5=2,38=5/2;
 6/7=2,8=2,9=2,10=2,28=1/1,7;
 99/5=1,9=1/99;
 Leave Link    1 at Tue Feb  1 05:07:52 2022, MaxMem=  805306368 cpu:       3.0
 (Enter /home/mamin/g09/l101.exe)
 -------------------
 Title Card Required
 -------------------
 Symbolic Z-matrix:
 Charge =  0 Multiplicity = 1
 N(PDBName=N,ResName=SER,ResNum=1)  0.043    -0.056     0. 
 C(PDBName=CA,ResName=SER,ResNum=1)  1.502    -0.02      0. 
 C(PDBName=C,ResName=SER,ResNum=1)  2.009     1.402     0. 
 O(PDBName=O,ResName=SER,ResNum=1)  1.19379   2.36065   0. 
 C(PDBName=CB,ResName=SER,ResNum=1)  2.073    -0.829    -1.192 
 O(PDBName=OG,ResName=SER,ResNum=1)  1.824    -0.207    -2.457 
 H(PDBName=H1,ResName=SER,ResNum=1) -0.552     0.845     0. 
 H(PDBName=H2,ResName=SER,ResNum=1) -0.507    -0.986     0. 
 H(PDBName=HA,ResName=SER,ResNum=1)  1.854    -0.486     0.939 
 H(PDBName=HB2,ResName=SER,ResNum=1)  3.168    -0.947    -1.072 
 H(PDBName=HB3,ResName=SER,ResNum=1)  1.675    -1.862    -1.203 
 H(PDBName=HG,ResName=SER,ResNum=1)  0.871    -0.178    -2.58 
 H                     3.0615    1.59473   0. 
 
 NAtoms=     13 NQM=     13 NQMF=      0 NMic=      0 NMicF=      0 NTot=     13.
                    Isotopes and Nuclear Properties:
 (Nuclear quadrupole moments (NQMom) in fm**2, nuclear magnetic moments (NMagM)
  in nuclear magnetons)

  Atom         1           2           3           4           5           6           7           8           9          10
 IAtWgt=          14          12          12          16          12          16           1           1           1           1
 AtmWgt=  14.0030740  12.0000000  12.0000000  15.9949146  12.0000000  15.9949146   1.0078250   1.0078250   1.0078250   1.0078250
 NucSpn=           2           0           0           0           0           0           1           1           1           1
 AtZEff=   0.0000000   0.0000000   0.0000000   0.0000000   0.0000000   0.0000000   0.0000000   0.0000000   0.0000000   0.0000000
 NQMom=    2.0440000   0.0000000   0.0000000   0.0000000   0.0000000   0.0000000   0.0000000   0.0000000   0.0000000   0.0000000
 NMagM=    0.4037610   0.0000000   0.0000000   0.0000000   0.0000000   0.0000000   2.7928460   2.7928460   2.7928460   2.7928460

  Atom        11          12          13
 IAtWgt=           1           1           1
 AtmWgt=   1.0078250   1.0078250   1.0078250
 NucSpn=           1           1           1
 AtZEff=   0.0000000   0.0000000   0.0000000
 NQMom=    0.0000000   0.0000000   0.0000000
 NMagM=    2.7928460   2.7928460   2.7928460
 Leave Link  101 at Tue Feb  1 05:07:53 2022, MaxMem=  805306368 cpu:       1.0
 (Enter /home/mamin/g09/l202.exe)
                          Input orientation:                          
 ---------------------------------------------------------------------
 Center     Atomic      Atomic             Coordinates (Angstroms)
 Number     Number       Type             X           Y           Z
 ---------------------------------------------------------------------
      1          7           0        0.043000   -0.056000    0.000000
      2          6           0        1.502000   -0.020000    0.000000
      3          6           0        2.009000    1.402000    0.000000
      4          8           0        1.193794    2.360650    0.000000
      5          6           0        2.073000   -0.829000   -1.192000
      6          8           0        1.824000   -0.207000   -2.457000
      7          1           0       -0.552000    0.845000    0.000000
      8          1           0       -0.507000   -0.986000    0.000000
      9          1           0        1.854000   -0.486000    0.939000
     10          1           0        3.168000   -0.947000   -1.072000
     11          1           0        1.675000   -1.862000   -1.203000
     12          1           0        0.871000   -0.178000   -2.580000
     13          1           0        3.061500    1.594730    0.000000
 ---------------------------------------------------------------------
                    Distance matrix (angstroms):
                    1          2          3          4          5
     1  N    0.000000
     2  C    1.459444   0.000000
     3  C    2.447636   1.509680   0.000000
     4  O    2.676663   2.400518   1.258400   0.000000
     5  C    2.477760   1.549641   2.530281   3.516779   0.000000
     6  O    3.038357   2.485056   2.942780   3.609271   1.431471
     7  H    1.079734   2.228708   2.620872   2.311924   3.333731
     8  H    1.080463   2.229179   3.468833   3.754033   2.846386
     9  H    2.084788   1.105794   2.114306   3.069366   2.169509
    10  H    3.421796   2.187251   2.830241   3.998402   1.107858
    11  H    2.715192   2.206831   3.494633   4.416960   1.107075
    12  H    2.712355   2.660738   3.232312   3.633915   1.948114
    13  H    3.440385   2.244859   1.070000   2.018653   2.876188
                    6          7          8          9         10
     6  O    0.000000
     7  H    3.576161   0.000000
     8  H    3.475234   1.831553   0.000000
     9  H    3.407573   2.905532   2.589603   0.000000
    10  H    2.066921   4.266011   3.828359   2.446066   0.000000
    11  H    2.081764   3.706020   2.641157   2.552172   1.755971
    12  H    0.961342   3.118951   3.034493   3.666676   2.853355
    13  H    3.288538   3.690457   4.403902   2.582482   2.760601
                   11         12         13
    11  H    0.000000
    12  H    2.319138   0.000000
    13  H    3.913894   3.820636   0.000000
 Stoichiometry    C3H7NO2
 Framework group  C1[X(C3H7NO2)]
 Deg. of freedom    33
 Full point group                 C1      NOp   1
 Largest Abelian subgroup         C1      NOp   1
 Largest concise Abelian subgroup C1      NOp   1
                         Standard orientation:                         
 ---------------------------------------------------------------------
 Center     Atomic      Atomic             Coordinates (Angstroms)
 Number     Number       Type             X           Y           Z
 ---------------------------------------------------------------------
      1          7           0        0.319474    1.506412   -0.293327
      2          6           0        0.064800    0.410312    0.636018
      3          6           0        1.061105   -0.707219    0.442023
      4          8           0        1.956700   -0.606310   -0.436212
      5          6           0       -1.393607   -0.096552    0.503639
      6          8           0       -1.636366   -0.776944   -0.732178
      7          1           0        1.128080    1.474856   -1.008160
      8          1           0       -0.289844    2.398560   -0.307556
      9          1           0        0.209339    0.794173    1.662926
     10          1           0       -1.623343   -0.792253    1.334645
     11          1           0       -2.118310    0.732507    0.618019
     12          1           0       -1.504436   -0.140856   -1.440815
     13          1           0        1.005733   -1.585082    1.051277
 ---------------------------------------------------------------------
 Rotational constants (GHZ):      5.0531967      2.7136867      2.2755598
 Leave Link  202 at Tue Feb  1 05:07:53 2022, MaxMem=  805306368 cpu:       1.3
 (Enter /home/mamin/g09/l301.exe)
 Standard basis: 6-31+G(d,p) (6D, 7F)
 Ernie: Thresh=  0.10000D-02 Tol=  0.10000D-05 Strict=F.
 There are   149 symmetry adapted basis functions of A   symmetry.
 Integral buffers will be    131072 words long.
 Raffenetti 2 integral format.
 Two-electron integral symmetry is turned on.
   149 basis functions,   241 primitive gaussians,   149 cartesian basis functions
    24 alpha electrons       24 beta electrons
       nuclear repulsion energy       243.7410080175 Hartrees.
 IExCor=  402 DFT=T Ex+Corr=B3LYP ExCW=0 ScaHFX=  0.200000
 ScaDFX=  0.800000  0.720000  1.000000  0.810000 ScalE2=  1.000000  1.000000
 IRadAn=      0 IRanWt=     -1 IRanGd=            0 ICorTp=0
 NAtoms=   13 NActive=   13 NUniq=   13 SFac= 7.50D-01 NAtFMM=   80 NAOKFM=F Big=F
 Leave Link  301 at Tue Feb  1 05:07:53 2022, MaxMem=  805306368 cpu:       1.5
 (Enter /home/mamin/g09/l302.exe)
 NPDir=0 NMtPBC=     1 NCelOv=     1 NCel=       1 NClECP=     1 NCelD=      1
         NCelK=      1 NCelE2=     1 NClLst=     1 CellRange=     0.0.
 One-electron integrals computed using PRISM.
 NBasis=   149 RedAO= T  NBF=   149
 NBsUse=   149 1.00D-06 NBFU=   149
 Precomputing XC quadrature grid using
 IXCGrd= 2 IRadAn=           0 IRanWt=          -1 IRanGd=           0 AccXCQ= 1.00D-10.
 NRdTot=     834 NPtTot=      106182 NUsed=      112202 NTot=      112234
 NSgBfM=   149   149   149   149   149 NAtAll=    13    13.
 Leave Link  302 at Tue Feb  1 05:07:54 2022, MaxMem=  805306368 cpu:       5.0
 (Enter /home/mamin/g09/l303.exe)
 DipDrv:  MaxL=1.
 Leave Link  303 at Tue Feb  1 05:07:54 2022, MaxMem=  805306368 cpu:       3.0
 (Enter /home/mamin/g09/l401.exe)
 Harris functional with IExCor=  402 diagonalized for initial guess.
 ExpMin= 4.38D-02 ExpMax= 5.48D+03 ExpMxC= 8.25D+02 IAcc=2 IRadAn=         0 AccDes= 0.00D+00
 HarFok:  IExCor=  402 AccDes= 0.00D+00 IRadAn=         0 IDoV= 1
 ScaDFX=  1.000000  1.000000  1.000000  1.000000
 FoFCou: FMM=F IPFlag=           0 FMFlag=      100000 FMFlg1=           0
         NFxFlg=           0 DoJE=T BraDBF=F KetDBF=T FulRan=T
         Omega=  0.000000  0.000000  1.000000  0.000000  0.000000 ICntrl=     500 IOpCl=  0
         NMat0=    1 NMatS0=    1 NMatT0=    0 NMatD0=    1 NMtDS0=    0 NMtDT0=    0
         I1Cent=           4 NGrid=           0.
 Petite list used in FoFCou.
 Harris En= -323.747607405054    
 Initial guess orbital symmetries:
       Occupied  (A) (A) (A) (A) (A) (A) (A) (A) (A) (A) (A) (A)
                 (A) (A) (A) (A) (A) (A) (A) (A) (A) (A) (A) (A)
       Virtual   (A) (A) (A) (A) (A) (A) (A) (A) (A) (A) (A) (A)
                 (A) (A) (A) (A) (A) (A) (A) (A) (A) (A) (A) (A)
                 (A) (A) (A) (A) (A) (A) (A) (A) (A) (A) (A) (A)
                 (A) (A) (A) (A) (A) (A) (A) (A) (A) (A) (A) (A)
                 (A) (A) (A) (A) (A) (A) (A) (A) (A) (A) (A) (A)
                 (A) (A) (A) (A) (A) (A) (A) (A) (A) (A) (A) (A)
                 (A) (A) (A) (A) (A) (A) (A) (A) (A) (A) (A) (A)
                 (A) (A) (A) (A) (A) (A) (A) (A) (A) (A) (A) (A)
                 (A) (A) (A) (A) (A) (A) (A) (A) (A) (A) (A) (A)
                 (A) (A) (A) (A) (A) (A) (A) (A) (A) (A) (A) (A)
                 (A) (A) (A) (A) (A)
 The electronic state of the initial guess is 1-A.
 Leave Link  401 at Tue Feb  1 05:07:56 2022, MaxMem=  805306368 cpu:       9.6
 (Enter /home/mamin/g09/l502.exe)
 Closed shell SCF:
 Requested convergence on RMS density matrix=1.00D-08 within 128 cycles.
 Requested convergence on MAX density matrix=1.00D-06.
 Requested convergence on             energy=1.00D-06.
 No special actions if energy rises.
 Using DIIS extrapolation, IDIIS=  1040.
 Integral symmetry usage will be decided dynamically.
       112072 words used for storage of precomputed grid.
 Keep R1 ints in memory in canonical form, NReq=64334856.
 IEnd=      201517 IEndB=      201517 NGot=   805306368 MDV=   742697914
 LenX=   742697914 LenY=   742675272
 Symmetry not used in FoFDir.
 MinBra= 0 MaxBra= 2 Meth= 1.
 IRaf=       0 NMat=   1 IRICut=       1 DoRegI=T DoRafI=F ISym2E= 0 JSym2E=0.

 Cycle   1  Pass 1  IDiag  1:
 E= -323.539668746878    
 DIIS: error= 1.88D-02 at cycle   1 NSaved=   1.
 NSaved= 1 IEnMin= 1 EnMin= -323.539668746878     IErMin= 1 ErrMin= 1.88D-02
 ErrMax= 1.88D-02 EMaxC= 1.00D-01 BMatC= 2.00D-01 BMatP= 2.00D-01
 IDIUse=3 WtCom= 8.12D-01 WtEn= 1.88D-01
 Coeff-Com:  0.100D+01
 Coeff-En:   0.100D+01
 Coeff:      0.100D+01
 Gap=     0.092 Goal=   None    Shift=    0.000
 GapD=    0.092 DampG=0.500 DampE=0.500 DampFc=0.2500 IDamp=-1.
 Damping current iteration by 2.50D-01
 RMSDP=1.12D-02 MaxDP=3.17D-01              OVMax= 2.84D-01

 Cycle   2  Pass 1  IDiag  1:
 E= -323.600795361092     Delta-E=       -0.061126614214 Rises=F Damp=T
 DIIS: error= 7.05D-03 at cycle   2 NSaved=   2.
 NSaved= 2 IEnMin= 2 EnMin= -323.600795361092     IErMin= 2 ErrMin= 7.05D-03
 ErrMax= 7.05D-03 EMaxC= 1.00D-01 BMatC= 2.97D-02 BMatP= 2.00D-01
 IDIUse=3 WtCom= 9.29D-01 WtEn= 7.05D-02
 Coeff-Com: -0.430D+00 0.143D+01
 Coeff-En:   0.000D+00 0.100D+01
 Coeff:     -0.400D+00 0.140D+01
 Gap=     0.199 Goal=   None    Shift=    0.000
 RMSDP=2.80D-03 MaxDP=6.64D-02 DE=-6.11D-02 OVMax= 2.23D-01

 Cycle   3  Pass 1  IDiag  1:
 E= -323.697561996990     Delta-E=       -0.096766635898 Rises=F Damp=F
 DIIS: error= 7.32D-03 at cycle   3 NSaved=   3.
 NSaved= 3 IEnMin= 3 EnMin= -323.697561996990     IErMin= 2 ErrMin= 7.05D-03
 ErrMax= 7.32D-03 EMaxC= 1.00D-01 BMatC= 1.80D-02 BMatP= 2.97D-02
 IDIUse=3 WtCom= 9.27D-01 WtEn= 7.32D-02
 Coeff-Com: -0.291D+00 0.829D+00 0.463D+00
 Coeff-En:   0.000D+00 0.000D+00 0.100D+01
 Coeff:     -0.270D+00 0.768D+00 0.502D+00
 Gap=     0.188 Goal=   None    Shift=    0.000
 RMSDP=1.39D-03 MaxDP=3.28D-02 DE=-9.68D-02 OVMax= 6.37D-02

 Cycle   4  Pass 1  IDiag  1:
 E= -323.709370410099     Delta-E=       -0.011808413109 Rises=F Damp=F
 DIIS: error= 4.11D-03 at cycle   4 NSaved=   4.
 NSaved= 4 IEnMin= 4 EnMin= -323.709370410099     IErMin= 4 ErrMin= 4.11D-03
 ErrMax= 4.11D-03 EMaxC= 1.00D-01 BMatC= 4.88D-03 BMatP= 1.80D-02
 IDIUse=3 WtCom= 9.59D-01 WtEn= 4.11D-02
 Coeff-Com: -0.803D-01 0.208D+00 0.344D+00 0.529D+00
 Coeff-En:   0.000D+00 0.000D+00 0.240D+00 0.760D+00
 Coeff:     -0.770D-01 0.199D+00 0.339D+00 0.538D+00
 Gap=     0.176 Goal=   None    Shift=    0.000
 RMSDP=5.26D-04 MaxDP=1.20D-02 DE=-1.18D-02 OVMax= 2.26D-02

 Cycle   5  Pass 1  IDiag  1:
 E= -323.713129910557     Delta-E=       -0.003759500459 Rises=F Damp=F
 DIIS: error= 6.70D-04 at cycle   5 NSaved=   5.
 NSaved= 5 IEnMin= 5 EnMin= -323.713129910557     IErMin= 5 ErrMin= 6.70D-04
 ErrMax= 6.70D-04 EMaxC= 1.00D-01 BMatC= 1.77D-04 BMatP= 4.88D-03
 IDIUse=3 WtCom= 9.93D-01 WtEn= 6.70D-03
 Coeff-Com: -0.136D-01 0.328D-01 0.129D+00 0.263D+00 0.590D+00
 Coeff-En:   0.000D+00 0.000D+00 0.000D+00 0.000D+00 0.100D+01
 Coeff:     -0.135D-01 0.325D-01 0.128D+00 0.261D+00 0.592D+00
 Gap=     0.181 Goal=   None    Shift=    0.000
 RMSDP=1.37D-04 MaxDP=3.14D-03 DE=-3.76D-03 OVMax= 3.05D-03

 Cycle   6  Pass 1  IDiag  1:
 E= -323.713271856324     Delta-E=       -0.000141945766 Rises=F Damp=F
 DIIS: error= 1.64D-04 at cycle   6 NSaved=   6.
 NSaved= 6 IEnMin= 6 EnMin= -323.713271856324     IErMin= 6 ErrMin= 1.64D-04
 ErrMax= 1.64D-04 EMaxC= 1.00D-01 BMatC= 1.48D-05 BMatP= 1.77D-04
 IDIUse=3 WtCom= 9.98D-01 WtEn= 1.64D-03
 Coeff-Com:  0.627D-03-0.244D-02 0.338D-01 0.808D-01 0.292D+00 0.595D+00
 Coeff-En:   0.000D+00 0.000D+00 0.000D+00 0.000D+00 0.000D+00 0.100D+01
 Coeff:      0.626D-03-0.243D-02 0.338D-01 0.807D-01 0.291D+00 0.596D+00
 Gap=     0.181 Goal=   None    Shift=    0.000
 RMSDP=4.21D-05 MaxDP=8.83D-04 DE=-1.42D-04 OVMax= 6.32D-04

 Cycle   7  Pass 1  IDiag  1:
 E= -323.713284500373     Delta-E=       -0.000012644049 Rises=F Damp=F
 DIIS: error= 2.38D-05 at cycle   7 NSaved=   7.
 NSaved= 7 IEnMin= 7 EnMin= -323.713284500373     IErMin= 7 ErrMin= 2.38D-05
 ErrMax= 2.38D-05 EMaxC= 1.00D-01 BMatC= 2.84D-07 BMatP= 1.48D-05
 IDIUse=1 WtCom= 1.00D+00 WtEn= 0.00D+00
 Coeff-Com:  0.822D-03-0.203D-02 0.802D-02 0.196D-01 0.863D-01 0.215D+00
 Coeff-Com:  0.673D+00
 Coeff:      0.822D-03-0.203D-02 0.802D-02 0.196D-01 0.863D-01 0.215D+00
 Coeff:      0.673D+00
 Gap=     0.180 Goal=   None    Shift=    0.000
 RMSDP=1.07D-05 MaxDP=3.41D-04 DE=-1.26D-05 OVMax= 1.45D-04

 Cycle   8  Pass 1  IDiag  1:
 E= -323.713284748946     Delta-E=       -0.000000248573 Rises=F Damp=F
 DIIS: error= 8.05D-06 at cycle   8 NSaved=   8.
 NSaved= 8 IEnMin= 8 EnMin= -323.713284748946     IErMin= 8 ErrMin= 8.05D-06
 ErrMax= 8.05D-06 EMaxC= 1.00D-01 BMatC= 2.75D-08 BMatP= 2.84D-07
 IDIUse=1 WtCom= 1.00D+00 WtEn= 0.00D+00
 Coeff-Com:  0.346D-03-0.668D-03 0.548D-03 0.894D-03 0.101D-01 0.320D-01
 Coeff-Com:  0.251D+00 0.706D+00
 Coeff:      0.346D-03-0.668D-03 0.548D-03 0.894D-03 0.101D-01 0.320D-01
 Coeff:      0.251D+00 0.706D+00
 Gap=     0.181 Goal=   None    Shift=    0.000
 RMSDP=2.20D-06 MaxDP=5.11D-05 DE=-2.49D-07 OVMax= 6.58D-05

 Cycle   9  Pass 1  IDiag  1:
 E= -323.713284772820     Delta-E=       -0.000000023874 Rises=F Damp=F
 DIIS: error= 2.47D-06 at cycle   9 NSaved=   9.
 NSaved= 9 IEnMin= 9 EnMin= -323.713284772820     IErMin= 9 ErrMin= 2.47D-06
 ErrMax= 2.47D-06 EMaxC= 1.00D-01 BMatC= 3.01D-09 BMatP= 2.75D-08
 IDIUse=1 WtCom= 1.00D+00 WtEn= 0.00D+00
 Coeff-Com:  0.106D-03-0.159D-03-0.324D-03-0.116D-02-0.208D-02-0.306D-02
 Coeff-Com:  0.576D-01 0.316D+00 0.633D+00
 Coeff:      0.106D-03-0.159D-03-0.324D-03-0.116D-02-0.208D-02-0.306D-02
 Coeff:      0.576D-01 0.316D+00 0.633D+00
 Gap=     0.181 Goal=   None    Shift=    0.000
 RMSDP=9.28D-07 MaxDP=1.95D-05 DE=-2.39D-08 OVMax= 1.36D-05

 Cycle  10  Pass 1  IDiag  1:
 E= -323.713284775447     Delta-E=       -0.000000002627 Rises=F Damp=F
 DIIS: error= 1.03D-06 at cycle  10 NSaved=  10.
 NSaved=10 IEnMin=10 EnMin= -323.713284775447     IErMin=10 ErrMin= 1.03D-06
 ErrMax= 1.03D-06 EMaxC= 1.00D-01 BMatC= 3.68D-10 BMatP= 3.01D-09
 IDIUse=1 WtCom= 1.00D+00 WtEn= 0.00D+00
 Coeff-Com:  0.343D-04-0.418D-04-0.195D-03-0.685D-03-0.174D-02-0.375D-02
 Coeff-Com:  0.149D-01 0.123D+00 0.338D+00 0.531D+00
 Coeff:      0.343D-04-0.418D-04-0.195D-03-0.685D-03-0.174D-02-0.375D-02
 Coeff:      0.149D-01 0.123D+00 0.338D+00 0.531D+00
 Gap=     0.181 Goal=   None    Shift=    0.000
 RMSDP=1.95D-07 MaxDP=3.79D-06 DE=-2.63D-09 OVMax= 5.54D-06

 Cycle  11  Pass 1  IDiag  1:
 E= -323.713284775712     Delta-E=       -0.000000000265 Rises=F Damp=F
 DIIS: error= 3.22D-07 at cycle  11 NSaved=  11.
 NSaved=11 IEnMin=11 EnMin= -323.713284775712     IErMin=11 ErrMin= 3.22D-07
 ErrMax= 3.22D-07 EMaxC= 1.00D-01 BMatC= 3.26D-11 BMatP= 3.68D-10
 IDIUse=1 WtCom= 1.00D+00 WtEn= 0.00D+00
 Coeff-Com:  0.189D-06 0.283D-05-0.336D-04-0.139D-03-0.436D-03-0.116D-02
 Coeff-Com: -0.146D-02 0.788D-02 0.565D-01 0.255D+00 0.684D+00
 Coeff:      0.189D-06 0.283D-05-0.336D-04-0.139D-03-0.436D-03-0.116D-02
 Coeff:     -0.146D-02 0.788D-02 0.565D-01 0.255D+00 0.684D+00
 Gap=     0.181 Goal=   None    Shift=    0.000
 RMSDP=6.95D-08 MaxDP=1.63D-06 DE=-2.65D-10 OVMax= 1.86D-06

 Cycle  12  Pass 1  IDiag  1:
 E= -323.713284775740     Delta-E=       -0.000000000028 Rises=F Damp=F
 DIIS: error= 3.46D-08 at cycle  12 NSaved=  12.
 NSaved=12 IEnMin=12 EnMin= -323.713284775740     IErMin=12 ErrMin= 3.46D-08
 ErrMax= 3.46D-08 EMaxC= 1.00D-01 BMatC= 5.51D-13 BMatP= 3.26D-11
 IDIUse=1 WtCom= 1.00D+00 WtEn= 0.00D+00
 Coeff-Com: -0.169D-05 0.276D-05 0.195D-05-0.335D-05-0.266D-04-0.101D-03
 Coeff-Com: -0.101D-02-0.429D-02-0.381D-02 0.392D-01 0.164D+00 0.806D+00
 Coeff:     -0.169D-05 0.276D-05 0.195D-05-0.335D-05-0.266D-04-0.101D-03
 Coeff:     -0.101D-02-0.429D-02-0.381D-02 0.392D-01 0.164D+00 0.806D+00
 Gap=     0.181 Goal=   None    Shift=    0.000
 RMSDP=1.41D-08 MaxDP=2.79D-07 DE=-2.80D-11 OVMax= 4.00D-07

 Cycle  13  Pass 1  IDiag  1:
 E= -323.713284775741     Delta-E=       -0.000000000001 Rises=F Damp=F
 DIIS: error= 1.69D-08 at cycle  13 NSaved=  13.
 NSaved=13 IEnMin=13 EnMin= -323.713284775741     IErMin=13 ErrMin= 1.69D-08
 ErrMax= 1.69D-08 EMaxC= 1.00D-01 BMatC= 1.02D-13 BMatP= 5.51D-13
 IDIUse=1 WtCom= 1.00D+00 WtEn= 0.00D+00
 Coeff-Com: -0.696D-06 0.973D-06 0.274D-05 0.501D-05 0.867D-05 0.103D-04
 Coeff-Com: -0.406D-03-0.237D-02-0.470D-02 0.641D-02 0.432D-01 0.380D+00
 Coeff-Com:  0.578D+00
 Coeff:     -0.696D-06 0.973D-06 0.274D-05 0.501D-05 0.867D-05 0.103D-04
 Coeff:     -0.406D-03-0.237D-02-0.470D-02 0.641D-02 0.432D-01 0.380D+00
 Coeff:      0.578D+00
 Gap=     0.181 Goal=   None    Shift=    0.000
 RMSDP=3.31D-09 MaxDP=8.10D-08 DE=-1.14D-12 OVMax= 9.20D-08

 SCF Done:  E(RB3LYP) =  -323.713284776     A.U. after   13 cycles
             Convg  =    0.3314D-08             -V/T =  2.0107
 KE= 3.202813868997D+02 PE=-1.243703122970D+03 EE= 3.559674432770D+02
 Leave Link  502 at Tue Feb  1 05:08:07 2022, MaxMem=  805306368 cpu:     147.3
 (Enter /home/mamin/g09/l601.exe)
 Copying SCF densities to generalized density rwf, IOpCl= 0 IROHF=0.

 **********************************************************************

            Population analysis using the SCF density.

 **********************************************************************

 Orbital symmetries:
       Occupied  (A) (A) (A) (A) (A) (A) (A) (A) (A) (A) (A) (A)
                 (A) (A) (A) (A) (A) (A) (A) (A) (A) (A) (A) (A)
       Virtual   (A) (A) (A) (A) (A) (A) (A) (A) (A) (A) (A) (A)
                 (A) (A) (A) (A) (A) (A) (A) (A) (A) (A) (A) (A)
                 (A) (A) (A) (A) (A) (A) (A) (A) (A) (A) (A) (A)
                 (A) (A) (A) (A) (A) (A) (A) (A) (A) (A) (A) (A)
                 (A) (A) (A) (A) (A) (A) (A) (A) (A) (A) (A) (A)
                 (A) (A) (A) (A) (A) (A) (A) (A) (A) (A) (A) (A)
                 (A) (A) (A) (A) (A) (A) (A) (A) (A) (A) (A) (A)
                 (A) (A) (A) (A) (A) (A) (A) (A) (A) (A) (A) (A)
                 (A) (A) (A) (A) (A) (A) (A) (A) (A) (A) (A) (A)
                 (A) (A) (A) (A) (A) (A) (A) (A) (A) (A) (A) (A)
                 (A) (A) (A) (A) (A)
 The electronic state is 1-A.
 Alpha  occ. eigenvalues --  -19.17250 -19.16867 -14.34242 -10.29773 -10.25976
 Alpha  occ. eigenvalues --  -10.25305  -1.04464  -1.03470  -0.88279  -0.75355
 Alpha  occ. eigenvalues --   -0.67241  -0.59215  -0.53729  -0.49557  -0.48826
 Alpha  occ. eigenvalues --   -0.47712  -0.44845  -0.42997  -0.40429  -0.37578
 Alpha  occ. eigenvalues --   -0.35084  -0.30064  -0.27554  -0.23797
 Alpha virt. eigenvalues --   -0.05743  -0.00726   0.00562   0.02405   0.02861
 Alpha virt. eigenvalues --    0.04594   0.05427   0.06224   0.08126   0.08788
 Alpha virt. eigenvalues --    0.10992   0.11464   0.12601   0.13476   0.15105
 Alpha virt. eigenvalues --    0.16386   0.17001   0.17125   0.19187   0.20126
 Alpha virt. eigenvalues --    0.20586   0.21376   0.22894   0.24164   0.25506
 Alpha virt. eigenvalues --    0.25881   0.26184   0.27779   0.30102   0.30722
 Alpha virt. eigenvalues --    0.32162   0.32729   0.33621   0.35433   0.37689
 Alpha virt. eigenvalues --    0.40802   0.44501   0.62231   0.63632   0.64819
 Alpha virt. eigenvalues --    0.67930   0.72832   0.74663   0.75777   0.78953
 Alpha virt. eigenvalues --    0.80965   0.89924   0.91016   0.93410   0.95894
 Alpha virt. eigenvalues --    0.97023   0.99757   1.01072   1.02634   1.04617
 Alpha virt. eigenvalues --    1.08184   1.13797   1.17523   1.18415   1.22297
 Alpha virt. eigenvalues --    1.24421   1.27071   1.28465   1.31950   1.36914
 Alpha virt. eigenvalues --    1.40048   1.45210   1.47090   1.50377   1.54576
 Alpha virt. eigenvalues --    1.56038   1.59678   1.65873   1.69223   1.72547
 Alpha virt. eigenvalues --    1.78070   1.78636   1.84885   1.84935   1.87417
 Alpha virt. eigenvalues --    1.95560   1.98820   1.99784   2.02558   2.04031
 Alpha virt. eigenvalues --    2.07236   2.09064   2.13191   2.16255   2.19240
 Alpha virt. eigenvalues --    2.28356   2.35658   2.38120   2.39721   2.42054
 Alpha virt. eigenvalues --    2.46291   2.48811   2.53291   2.55730   2.59115
 Alpha virt. eigenvalues --    2.60911   2.66791   2.68484   2.69949   2.77081
 Alpha virt. eigenvalues --    2.78760   2.84031   2.86077   2.91143   2.95553
 Alpha virt. eigenvalues --    3.02789   3.04047   3.22970   3.27867   3.38896
 Alpha virt. eigenvalues --    3.39764   3.42634   3.51164   3.55391   4.09938
 Alpha virt. eigenvalues --    4.21551   4.28949   4.39623   4.50605   4.68129
          Condensed to atoms (all electrons):
              1          2          3          4          5          6
     1  N    7.070345   0.095122  -0.039389  -0.008733   0.004184  -0.009901
     2  C    0.095122   5.914672  -0.064263  -0.121166   0.074833  -0.123909
     3  C   -0.039389  -0.064263   5.077973   0.490898  -0.052973   0.095070
     4  O   -0.008733  -0.121166   0.490898   8.099517  -0.011299  -0.001339
     5  C    0.004184   0.074833  -0.052973  -0.011299   5.191508   0.157531
     6  O   -0.009901  -0.123909   0.095070  -0.001339   0.157531   8.229925
     7  H    0.329720   0.006982  -0.013105   0.006440  -0.004341  -0.000859
     8  H    0.307510   0.020072  -0.005213   0.002252  -0.009328  -0.000846
     9  H   -0.057437   0.354336   0.002120  -0.003756  -0.061301   0.006840
    10  H    0.014681  -0.048572  -0.022387  -0.000089   0.422274  -0.055697
    11  H   -0.015702  -0.039298   0.022175  -0.000420   0.380426  -0.047260
    12  H    0.023055  -0.019911  -0.016455  -0.000289   0.009047   0.258457
    13  H    0.008756  -0.129874   0.404120  -0.058332   0.020867  -0.003957
              7          8          9         10         11         12
     1  N    0.329720   0.307510  -0.057437   0.014681  -0.015702   0.023055
     2  C    0.006982   0.020072   0.354336  -0.048572  -0.039298  -0.019911
     3  C   -0.013105  -0.005213   0.002120  -0.022387   0.022175  -0.016455
     4  O    0.006440   0.002252  -0.003756  -0.000089  -0.000420  -0.000289
     5  C   -0.004341  -0.009328  -0.061301   0.422274   0.380426   0.009047
     6  O   -0.000859  -0.000846   0.006840  -0.055697  -0.047260   0.258457
     7  H    0.364791  -0.019839   0.001749  -0.000137   0.000036  -0.000605
     8  H   -0.019839   0.411593  -0.002415  -0.000078   0.001946  -0.000276
     9  H    0.001749  -0.002415   0.606614   0.002196  -0.002065   0.000154
    10  H   -0.000137  -0.000078   0.002196   0.582736  -0.041294   0.006608
    11  H    0.000036   0.001946  -0.002065  -0.041294   0.617804  -0.007322
    12  H   -0.000605  -0.000276   0.000154   0.006608  -0.007322   0.388672
    13  H    0.000271  -0.000053   0.000305   0.001409  -0.000288   0.000058
             13
     1  N    0.008756
     2  C   -0.129874
     3  C    0.404120
     4  O   -0.058332
     5  C    0.020867
     6  O   -0.003957
     7  H    0.000271
     8  H   -0.000053
     9  H    0.000305
    10  H    0.001409
    11  H   -0.000288
    12  H    0.000058
    13  H    0.622396
 Mulliken atomic charges:
              1
     1  N   -0.722210
     2  C    0.080973
     3  C    0.121430
     4  O   -0.393684
     5  C   -0.121427
     6  O   -0.504056
     7  H    0.328898
     8  H    0.294674
     9  H    0.152661
    10  H    0.138351
    11  H    0.131263
    12  H    0.358806
    13  H    0.134323
 Sum of Mulliken atomic charges =   0.00000
 Mulliken charges with hydrogens summed into heavy atoms:
              1
     1  N   -0.098639
     2  C    0.233634
     3  C    0.255753
     4  O   -0.393684
     5  C    0.148186
     6  O   -0.145250
 Sum of Mulliken charges with hydrogens summed into heavy atoms =   0.00000
 Electronic spatial extent (au):  <R**2>=            597.5929
 Charge=              0.0000 electrons
 Dipole moment (field-independent basis, Debye):
    X=             -1.6751    Y=              2.0529    Z=              1.9189  Tot=              3.2715
 Quadrupole moment (field-independent basis, Debye-Ang):
   XX=            -43.7872   YY=            -35.9513   ZZ=            -33.6820
   XY=             -2.7998   XZ=              0.8242   YZ=             -4.3865
 Traceless Quadrupole moment (field-independent basis, Debye-Ang):
   XX=             -5.9804   YY=              1.8555   ZZ=              4.1248
   XY=             -2.7998   XZ=              0.8242   YZ=             -4.3865
 Octapole moment (field-independent basis, Debye-Ang**2):
  XXX=             -8.4028  YYY=              5.4995  ZZZ=             -7.4650  XYY=             -0.4827
  XXY=              9.9676  XXZ=              3.7719  XZZ=             -1.5702  YZZ=              0.4638
  YYZ=             -0.4802  XYZ=             -1.4932
 Hexadecapole moment (field-independent basis, Debye-Ang**3):
 XXXX=           -452.4351 YYYY=           -198.2870 ZZZZ=           -120.5079 XXXY=             -0.8677
 XXXZ=              2.8803 YYYX=            -14.5237 YYYZ=            -13.3261 ZZZX=              7.7819
 ZZZY=             -0.2263 XXYY=           -112.2265 XXZZ=            -83.6027 YYZZ=            -56.2600
 XXYZ=            -12.3509 YYXZ=             -4.0671 ZZXY=              1.8565
 N-N= 2.437410080175D+02 E-N=-1.243703122645D+03  KE= 3.202813868997D+02
 No NMR shielding tensors so no spin-rotation constants.
 Leave Link  601 at Tue Feb  1 05:08:08 2022, MaxMem=  805306368 cpu:       8.8
 (Enter /home/mamin/g09/l607.exe)
 ******************************Gaussian NBO Version 3.1******************************
             N A T U R A L   A T O M I C   O R B I T A L   A N D
          N A T U R A L   B O N D   O R B I T A L   A N A L Y S I S
 ******************************Gaussian NBO Version 3.1******************************
       /RESON  / : Allow strongly delocalized NBO set

 Analyzing the SCF density

 Job title: Title Card Required                                             

 Storage needed:     67319 in NPA,     89439 in NBO ( 805305393 available)


 NATURAL POPULATIONS:  Natural atomic orbital occupancies 
                                                          
   NAO  Atom  No  lang   Type(AO)    Occupancy      Energy
 ----------------------------------------------------------
     1    N    1  S      Cor( 1S)     1.99963     -14.20645
     2    N    1  S      Val( 2S)     1.36004      -0.57085
     3    N    1  S      Ryd( 4S)     0.00093       1.00635
     4    N    1  S      Ryd( 3S)     0.00025       0.92186
     5    N    1  S      Ryd( 5S)     0.00002       3.87562
     6    N    1  px     Val( 2p)     1.61914      -0.22795
     7    N    1  px     Ryd( 3p)     0.00524       0.68148
     8    N    1  px     Ryd( 4p)     0.00062       0.76998
     9    N    1  py     Val( 2p)     1.42678      -0.21394
    10    N    1  py     Ryd( 3p)     0.00600       0.59115
    11    N    1  py     Ryd( 4p)     0.00082       0.76140
    12    N    1  pz     Val( 2p)     1.59477      -0.22315
    13    N    1  pz     Ryd( 3p)     0.00610       0.45230
    14    N    1  pz     Ryd( 4p)     0.00047       0.79345
    15    N    1  dxy    Ryd( 3d)     0.00048       2.31236
    16    N    1  dxz    Ryd( 3d)     0.00043       2.32349
    17    N    1  dyz    Ryd( 3d)     0.00036       2.26009
    18    N    1  dx2y2  Ryd( 3d)     0.00025       2.19558
    19    N    1  dz2    Ryd( 3d)     0.00030       2.12910
 
    20    C    2  S      Cor( 1S)     1.99922     -10.12022
    21    C    2  S      Val( 2S)     1.00213      -0.27584
    22    C    2  S      Ryd( 4S)     0.00183       1.38655
    23    C    2  S      Ryd( 3S)     0.00034       0.71546
    24    C    2  S      Ryd( 5S)     0.00003       4.25603
    25    C    2  px     Val( 2p)     1.07469      -0.12045
    26    C    2  px     Ryd( 4p)     0.00228       0.65734
    27    C    2  px     Ryd( 3p)     0.00023       0.28873
    28    C    2  py     Val( 2p)     0.99961      -0.11315
    29    C    2  py     Ryd( 4p)     0.00310       0.67354
    30    C    2  py     Ryd( 3p)     0.00043       0.30178
    31    C    2  pz     Val( 2p)     1.12050      -0.12239
    32    C    2  pz     Ryd( 4p)     0.00368       0.83713
    33    C    2  pz     Ryd( 3p)     0.00022       0.31267
    34    C    2  dxy    Ryd( 3d)     0.00128       2.23662
    35    C    2  dxz    Ryd( 3d)     0.00046       2.06202
    36    C    2  dyz    Ryd( 3d)     0.00107       2.29195
    37    C    2  dx2y2  Ryd( 3d)     0.00073       2.13663
    38    C    2  dz2    Ryd( 3d)     0.00162       2.34915
 
    39    C    3  S      Cor( 1S)     1.99943     -10.17854
    40    C    3  S      Val( 2S)     0.96714      -0.25954
    41    C    3  S      Ryd( 4S)     0.00810       0.99410
    42    C    3  S      Ryd( 3S)     0.00043       0.50710
    43    C    3  S      Ryd( 5S)     0.00014       3.99611
    44    C    3  px     Val( 2p)     0.77152      -0.07638
    45    C    3  px     Ryd( 4p)     0.00818       0.61778
    46    C    3  px     Ryd( 3p)     0.00060       0.23999
    47    C    3  py     Val( 2p)     1.01798      -0.08786
    48    C    3  py     Ryd( 4p)     0.00197       0.76694
    49    C    3  py     Ryd( 3p)     0.00029       0.28124
    50    C    3  pz     Val( 2p)     0.80372      -0.08985
    51    C    3  pz     Ryd( 4p)     0.00703       0.67102
    52    C    3  pz     Ryd( 3p)     0.00056       0.26495
    53    C    3  dxy    Ryd( 3d)     0.00125       2.29252
    54    C    3  dxz    Ryd( 3d)     0.00062       2.41397
    55    C    3  dyz    Ryd( 3d)     0.00150       2.42239
    56    C    3  dx2y2  Ryd( 3d)     0.00102       2.25263
    57    C    3  dz2    Ryd( 3d)     0.00109       2.22959
 
    58    O    4  S      Cor( 1S)     1.99983     -18.92879
    59    O    4  S      Val( 2S)     1.73403      -0.92451
    60    O    4  S      Ryd( 3S)     0.00227       0.75601
    61    O    4  S      Ryd( 4S)     0.00023       1.62280
    62    O    4  S      Ryd( 5S)     0.00004       3.84319
    63    O    4  px     Val( 2p)     1.52620      -0.28799
    64    O    4  px     Ryd( 3p)     0.00137       0.67323
    65    O    4  px     Ryd( 4p)     0.00017       0.99019
    66    O    4  py     Val( 2p)     1.79479      -0.27876
    67    O    4  py     Ryd( 3p)     0.00414       0.68985
    68    O    4  py     Ryd( 4p)     0.00003       0.91504
    69    O    4  pz     Val( 2p)     1.47522      -0.28549
    70    O    4  pz     Ryd( 3p)     0.00086       0.66313
    71    O    4  pz     Ryd( 4p)     0.00006       0.97268
    72    O    4  dxy    Ryd( 3d)     0.00189       1.87514
    73    O    4  dxz    Ryd( 3d)     0.00422       2.24209
    74    O    4  dyz    Ryd( 3d)     0.00166       1.89845
    75    O    4  dx2y2  Ryd( 3d)     0.00207       1.93120
    76    O    4  dz2    Ryd( 3d)     0.00318       1.87217
 
    77    C    5  S      Cor( 1S)     1.99929     -10.14299
    78    C    5  S      Val( 2S)     1.03774      -0.28977
    79    C    5  S      Ryd( 4S)     0.00204       1.19726
    80    C    5  S      Ryd( 3S)     0.00046       0.69854
    81    C    5  S      Ryd( 5S)     0.00003       4.09891
    82    C    5  px     Val( 2p)     1.05895      -0.10259
    83    C    5  px     Ryd( 4p)     0.00187       0.60531
    84    C    5  px     Ryd( 3p)     0.00033       0.24654
    85    C    5  py     Val( 2p)     1.12010      -0.11388
    86    C    5  py     Ryd( 4p)     0.00491       0.72828
    87    C    5  py     Ryd( 3p)     0.00034       0.31734
    88    C    5  pz     Val( 2p)     0.88631      -0.10178
    89    C    5  pz     Ryd( 4p)     0.00285       0.64813
    90    C    5  pz     Ryd( 3p)     0.00047       0.28940
    91    C    5  dxy    Ryd( 3d)     0.00107       2.35032
    92    C    5  dxz    Ryd( 3d)     0.00111       2.08362
    93    C    5  dyz    Ryd( 3d)     0.00179       2.37946
    94    C    5  dx2y2  Ryd( 3d)     0.00068       2.14725
    95    C    5  dz2    Ryd( 3d)     0.00163       2.30664
 
    96    O    6  S      Cor( 1S)     1.99984     -18.98023
    97    O    6  S      Val( 2S)     1.69124      -0.89879
    98    O    6  S      Ryd( 3S)     0.00279       0.84330
    99    O    6  S      Ryd( 4S)     0.00031       1.47569
   100    O    6  S      Ryd( 5S)     0.00000       3.96836
   101    O    6  px     Val( 2p)     1.93518      -0.30772
   102    O    6  px     Ryd( 3p)     0.00431       0.56993
   103    O    6  px     Ryd( 4p)     0.00016       0.99104
   104    O    6  py     Val( 2p)     1.72491      -0.31295
   105    O    6  py     Ryd( 3p)     0.00194       0.65558
   106    O    6  py     Ryd( 4p)     0.00027       0.88484
   107    O    6  pz     Val( 2p)     1.40775      -0.28501
   108    O    6  pz     Ryd( 3p)     0.00489       0.74539
   109    O    6  pz     Ryd( 4p)     0.00031       0.92828
   110    O    6  dxy    Ryd( 3d)     0.00181       2.00737
   111    O    6  dxz    Ryd( 3d)     0.00020       2.05941
   112    O    6  dyz    Ryd( 3d)     0.00142       2.68323
   113    O    6  dx2y2  Ryd( 3d)     0.00162       2.11617
   114    O    6  dz2    Ryd( 3d)     0.00072       2.31382
 
   115    H    7  S      Val( 1S)     0.53850       0.11678
   116    H    7  S      Ryd( 2S)     0.00136       0.69121
   117    H    7  px     Ryd( 2p)     0.00058       2.66786
   118    H    7  py     Ryd( 2p)     0.00017       2.36861
   119    H    7  pz     Ryd( 2p)     0.00048       2.59305
 
   120    H    8  S      Val( 1S)     0.56640       0.08604
   121    H    8  S      Ryd( 2S)     0.00047       0.63166
   122    H    8  px     Ryd( 2p)     0.00041       2.51442
   123    H    8  py     Ryd( 2p)     0.00060       2.77355
   124    H    8  pz     Ryd( 2p)     0.00027       2.31365
 
   125    H    9  S      Val( 1S)     0.74079       0.02762
   126    H    9  S      Ryd( 2S)     0.00178       0.66089
   127    H    9  px     Ryd( 2p)     0.00012       2.44347
   128    H    9  py     Ryd( 2p)     0.00022       2.47015
   129    H    9  pz     Ryd( 2p)     0.00039       2.92199
 
   130    H   10  S      Val( 1S)     0.76864       0.03366
   131    H   10  S      Ryd( 2S)     0.00105       0.64284
   132    H   10  px     Ryd( 2p)     0.00015       2.36865
   133    H   10  py     Ryd( 2p)     0.00024       2.62359
   134    H   10  pz     Ryd( 2p)     0.00027       2.72004
 
   135    H   11  S      Val( 1S)     0.78203       0.02891
   136    H   11  S      Ryd( 2S)     0.00124       0.64183
   137    H   11  px     Ryd( 2p)     0.00032       2.61500
   138    H   11  py     Ryd( 2p)     0.00027       2.70569
   139    H   11  pz     Ryd( 2p)     0.00008       2.39303
 
   140    H   12  S      Val( 1S)     0.48742       0.16352
   141    H   12  S      Ryd( 2S)     0.00219       0.68417
   142    H   12  px     Ryd( 2p)     0.00098       2.32012
   143    H   12  py     Ryd( 2p)     0.00094       2.70182
   144    H   12  pz     Ryd( 2p)     0.00091       2.83478
 
   145    H   13  S      Val( 1S)     0.81488       0.03161
   146    H   13  S      Ryd( 2S)     0.00260       0.56544
   147    H   13  px     Ryd( 2p)     0.00007       2.42100
   148    H   13  py     Ryd( 2p)     0.00044       2.81671
   149    H   13  pz     Ryd( 2p)     0.00018       2.57238

 WARNING:  Population inversion found on atom  N    1
           Population inversion found on atom  C    2
           Population inversion found on atom  C    3
           Population inversion found on atom  C    5


 Summary of Natural Population Analysis:                  
                                                          
                                       Natural Population 
                Natural  -----------------------------------------------
    Atom  No    Charge         Core      Valence    Rydberg      Total
 -----------------------------------------------------------------------
      N    1   -1.02263      1.99963     6.00073    0.02227     8.02263
      C    2   -0.21345      1.99922     4.19693    0.01730     6.21345
      C    3    0.40744      1.99943     3.56035    0.03278     5.59256
      O    4   -0.55226      1.99983     6.53024    0.02219     8.55226
      C    5   -0.12197      1.99929     4.10310    0.01959     6.12197
      O    6   -0.77968      1.99984     6.75908    0.02076     8.77968
      H    7    0.45892      0.00000     0.53850    0.00258     0.54108
      H    8    0.43184      0.00000     0.56640    0.00175     0.56816
      H    9    0.25670      0.00000     0.74079    0.00251     0.74330
      H   10    0.22964      0.00000     0.76864    0.00172     0.77036
      H   11    0.21606      0.00000     0.78203    0.00191     0.78394
      H   12    0.50755      0.00000     0.48742    0.00503     0.49245
      H   13    0.18182      0.00000     0.81488    0.00329     0.81818
 =======================================================================
   * Total *    0.00000     11.99722    35.84909    0.15368    48.00000

                                 Natural Population      
 --------------------------------------------------------
   Core                      11.99722 ( 99.9769% of  12)
   Valence                   35.84909 ( 99.5808% of  36)
   Natural Minimal Basis     47.84632 ( 99.6798% of  48)
   Natural Rydberg Basis      0.15368 (  0.3202% of  48)
 --------------------------------------------------------

    Atom  No          Natural Electron Configuration
 ----------------------------------------------------------------------------
      N    1      [core]2S( 1.36)2p( 4.64)3p( 0.02)
      C    2      [core]2S( 1.00)2p( 3.19)3d( 0.01)4p( 0.01)
      C    3      [core]2S( 0.97)2p( 2.59)4S( 0.01)3d( 0.01)4p( 0.02)
      O    4      [core]2S( 1.73)2p( 4.80)3p( 0.01)3d( 0.01)
      C    5      [core]2S( 1.04)2p( 3.07)3d( 0.01)4p( 0.01)
      O    6      [core]2S( 1.69)2p( 5.07)3p( 0.01)3d( 0.01)
      H    7            1S( 0.54)
      H    8            1S( 0.57)
      H    9            1S( 0.74)
      H   10            1S( 0.77)
      H   11            1S( 0.78)
      H   12            1S( 0.49)
      H   13            1S( 0.81)


 NATURAL BOND ORBITAL ANALYSIS:

                       Occupancies       Lewis Structure    Low   High
           Occ.    -------------------  -----------------   occ   occ
  Cycle   Thresh.   Lewis   Non-Lewis     CR  BD  3C  LP    (L)   (NL)   Dev
 =============================================================================
   1(1)    1.90    47.58027   0.41973      6  13   0   5     0      0    0.05
 -----------------------------------------------------------------------------

 Structure accepted: No low occupancy Lewis orbitals

 --------------------------------------------------------
   Core                     11.99723 ( 99.977% of  12)
   Valence Lewis            35.58305 ( 98.842% of  36)
  ==================       ============================
   Total Lewis              47.58027 ( 99.126% of  48)
  -----------------------------------------------------
   Valence non-Lewis         0.33926 (  0.707% of  48)
   Rydberg non-Lewis         0.08046 (  0.168% of  48)
  ==================       ============================
   Total non-Lewis           0.41973 (  0.874% of  48)
 --------------------------------------------------------


       (Occupancy)   Bond orbital/ Coefficients/ Hybrids
 ---------------------------------------------------------------------------------
     1. (1.99281) BD ( 1) N   1 - C   2  
                ( 58.57%)   0.7653* N   1 s( 37.75%)p 1.65( 62.21%)d 0.00(  0.04%)
                                            0.0001  0.6144  0.0062  0.0015  0.0029
                                           -0.1325 -0.0063  0.0038 -0.5860 -0.0276
                                            0.0137  0.5096  0.0230 -0.0037  0.0024
                                           -0.0064 -0.0166 -0.0091  0.0009
                ( 41.43%)   0.6436* C   2 s( 23.94%)p 3.17( 75.94%)d 0.00(  0.11%)
                                            0.0000  0.4883 -0.0313  0.0025 -0.0006
                                            0.1554 -0.0078  0.0031  0.6480 -0.0307
                                            0.0037 -0.5606  0.0079  0.0043  0.0080
                                           -0.0077 -0.0278 -0.0152  0.0042
     2. (1.99252) BD ( 1) N   1 - H   7  
                ( 73.44%)   0.8570* N   1 s( 31.81%)p 2.14( 68.16%)d 0.00(  0.03%)
                                           -0.0001  0.5640 -0.0030 -0.0006 -0.0013
                                            0.6174  0.0189 -0.0067 -0.0245  0.0049
                                            0.0134 -0.5465 -0.0225 -0.0024 -0.0028
                                           -0.0147 -0.0007  0.0065  0.0016
                ( 26.56%)   0.5154* H   7 s( 99.87%)p 0.00(  0.13%)
                                            0.9994  0.0053 -0.0273  0.0025  0.0227
     3. (1.99228) BD ( 1) N   1 - H   8  
                ( 71.78%)   0.8472* N   1 s( 30.35%)p 2.29( 69.61%)d 0.00(  0.03%)
                                           -0.0001  0.5509 -0.0039 -0.0003 -0.0012
                                           -0.4766 -0.0104  0.0099  0.6837  0.0331
                                            0.0034  0.0000 -0.0104 -0.0085 -0.0151
                                           -0.0030 -0.0013 -0.0042 -0.0087
                ( 28.22%)   0.5312* H   8 s( 99.88%)p 0.00(  0.12%)
                                            0.9994  0.0023  0.0185 -0.0293  0.0009
     4. (1.98352) BD ( 1) C   2 - C   3  
                ( 52.87%)   0.7271* C   2 s( 26.00%)p 2.84( 73.94%)d 0.00(  0.06%)
                                            0.0000  0.5099  0.0021  0.0000  0.0003
                                            0.5627 -0.0011  0.0026 -0.6358 -0.0052
                                            0.0049 -0.1353 -0.0091  0.0020 -0.0204
                                           -0.0028  0.0059 -0.0018 -0.0116
                ( 47.13%)   0.6865* C   3 s( 35.56%)p 1.81( 64.38%)d 0.00(  0.06%)
                                            0.0002  0.5961  0.0168  0.0038  0.0020
                                           -0.5233  0.0024  0.0113  0.6021  0.0045
                                           -0.0098  0.0836 -0.0133  0.0021 -0.0203
                                            0.0006  0.0059 -0.0026 -0.0124
     5. (1.97204) BD ( 1) C   2 - C   5  
                ( 52.10%)   0.7218* C   2 s( 26.95%)p 2.71( 73.01%)d 0.00(  0.05%)
                                           -0.0001  0.5191  0.0009 -0.0022  0.0009
                                           -0.8036 -0.0034  0.0031 -0.2759 -0.0037
                                            0.0049 -0.0898 -0.0034  0.0032  0.0127
                                            0.0034  0.0041  0.0119 -0.0117
                ( 47.90%)   0.6921* C   5 s( 28.26%)p 2.54( 71.68%)d 0.00(  0.06%)
                                            0.0004  0.5316  0.0038 -0.0036  0.0018
                                            0.8038  0.0034 -0.0068  0.2621 -0.0124
                                           -0.0026  0.0410 -0.0107  0.0016  0.0115
                                            0.0027 -0.0012  0.0170 -0.0132
     6. (1.95102) BD ( 1) C   2 - H   9  
                ( 63.04%)   0.7940* C   2 s( 23.16%)p 3.32( 76.78%)d 0.00(  0.06%)
                                           -0.0003  0.4810  0.0164  0.0025 -0.0003
                                            0.1127 -0.0048  0.0002  0.3125 -0.0055
                                            0.0003  0.8106  0.0199  0.0020 -0.0006
                                            0.0071  0.0116  0.0011  0.0193
                ( 36.96%)   0.6080* H   9 s( 99.94%)p 0.00(  0.06%)
                                            0.9997  0.0068 -0.0041 -0.0107 -0.0224
     7. (1.99701) BD ( 1) C   3 - O   4  
                ( 34.82%)   0.5901* C   3 s( 30.38%)p 2.29( 69.50%)d 0.00(  0.11%)
                                            0.0000  0.5469 -0.0690  0.0016 -0.0020
                                            0.5655 -0.0591  0.0000  0.0378  0.0107
                                           -0.0074 -0.6066  0.0462  0.0037  0.0054
                                           -0.0275  0.0001  0.0160  0.0103
                ( 65.18%)   0.8073* O   4 s( 36.72%)p 1.71( 62.92%)d 0.01(  0.37%)
                                            0.0000  0.6053 -0.0269  0.0036 -0.0022
                                           -0.5856  0.0068  0.0020 -0.0970  0.0064
                                           -0.0019  0.5259 -0.0093 -0.0002  0.0073
                                           -0.0512 -0.0047  0.0282  0.0126
     8. (1.99129) BD ( 2) C   3 - O   4  
                ( 33.02%)   0.5747* C   3 s(  0.08%)p99.99( 99.78%)d 1.86(  0.14%)
                                           -0.0001  0.0274 -0.0004  0.0030  0.0009
                                            0.6313  0.0235  0.0126  0.4328  0.0164
                                            0.0078  0.6403  0.0275  0.0126  0.0141
                                            0.0013 -0.0087  0.0153 -0.0301
                ( 66.98%)   0.8184* O   4 s(  0.06%)p99.99( 99.65%)d 4.40(  0.28%)
                                            0.0000  0.0253  0.0017  0.0011 -0.0006
                                            0.5776 -0.0082 -0.0005  0.4274 -0.0056
                                            0.0009  0.6928 -0.0086  0.0022 -0.0177
                                           -0.0057  0.0139 -0.0202  0.0435
     9. (1.98916) BD ( 1) C   3 - H  13  
                ( 60.29%)   0.7764* C   3 s( 34.24%)p 1.92( 65.70%)d 0.00(  0.06%)
                                            0.0002 -0.5847 -0.0219  0.0036  0.0014
                                            0.0304  0.0132 -0.0052  0.6685  0.0041
                                           -0.0029 -0.4567 -0.0169  0.0037 -0.0044
                                           -0.0016  0.0201  0.0147 -0.0012
                ( 39.71%)   0.6302* H  13 s( 99.94%)p 0.00(  0.06%)
                                           -0.9997 -0.0090 -0.0002 -0.0211  0.0131
    10. (1.99601) BD ( 1) C   5 - O   6  
                ( 33.81%)   0.5814* C   5 s( 21.61%)p 3.62( 78.15%)d 0.01(  0.24%)
                                            0.0000 -0.4631  0.0408  0.0026  0.0026
                                            0.1347 -0.0237  0.0053  0.4001 -0.0354
                                           -0.0007  0.7750 -0.0294 -0.0015 -0.0057
                                           -0.0116 -0.0329  0.0072 -0.0331
                ( 66.19%)   0.8136* O   6 s( 28.76%)p 2.47( 71.15%)d 0.00(  0.09%)
                                            0.0000 -0.5361  0.0117  0.0031  0.0008
                                           -0.1375  0.0006  0.0062 -0.4070  0.0003
                                            0.0056 -0.7255  0.0199  0.0080 -0.0092
                                           -0.0081 -0.0231  0.0134 -0.0051
    11. (1.98035) BD ( 1) C   5 - H  10  
                ( 61.76%)   0.7859* C   5 s( 24.68%)p 3.05( 75.25%)d 0.00(  0.06%)
                                           -0.0002  0.4968  0.0053  0.0025 -0.0003
                                           -0.1721  0.0129 -0.0078 -0.5766 -0.0059
                                           -0.0005  0.6244  0.0166 -0.0014  0.0039
                                           -0.0065 -0.0215 -0.0070  0.0067
                ( 38.24%)   0.6184* H  10 s( 99.94%)p 0.00(  0.06%)
                                            0.9997  0.0032  0.0068  0.0149 -0.0181
    12. (1.98718) BD ( 1) C   5 - H  11  
                ( 61.35%)   0.7832* C   5 s( 25.51%)p 2.92( 74.42%)d 0.00(  0.06%)
                                            0.0001 -0.5049 -0.0127 -0.0039 -0.0003
                                            0.5518 -0.0038  0.0060 -0.6604 -0.0181
                                            0.0029 -0.0562  0.0014 -0.0023  0.0201
                                            0.0044 -0.0009  0.0034  0.0137
                ( 38.65%)   0.6217* H  11 s( 99.94%)p 0.00(  0.06%)
                                           -0.9997 -0.0041 -0.0171  0.0169  0.0034
    13. (1.98935) BD ( 1) O   6 - H  12  
                ( 75.84%)   0.8708* O   6 s( 22.23%)p 3.49( 77.68%)d 0.00(  0.08%)
                                           -0.0001  0.4706 -0.0298  0.0018  0.0003
                                            0.1147  0.0008 -0.0033  0.5501 -0.0029
                                           -0.0058 -0.6770  0.0514 -0.0037  0.0089
                                           -0.0047 -0.0198 -0.0174 -0.0044
                ( 24.16%)   0.4916* H  12 s( 99.76%)p 0.00(  0.24%)
                                            0.9988 -0.0075 -0.0066 -0.0296  0.0383
    14. (1.99963) CR ( 1) N   1           s(100.00%)p 0.00(  0.00%)
                                            1.0000  0.0001  0.0000  0.0000  0.0000
                                            0.0001  0.0000  0.0000  0.0001  0.0000
                                            0.0000 -0.0001  0.0000  0.0000  0.0000
                                            0.0000  0.0000  0.0000  0.0000
    15. (1.99922) CR ( 1) C   2           s(100.00%)p 0.00(  0.00%)
                                            1.0000  0.0002  0.0000  0.0000  0.0000
                                            0.0000  0.0000  0.0000  0.0001  0.0000
                                            0.0000  0.0002  0.0000  0.0000  0.0000
                                            0.0000  0.0000  0.0000  0.0000
    16. (1.99943) CR ( 1) C   3           s(100.00%)p 0.00(  0.00%)
                                            1.0000  0.0000  0.0000  0.0000  0.0000
                                            0.0001  0.0000  0.0000 -0.0002  0.0000
                                            0.0000  0.0001  0.0000  0.0000  0.0000
                                            0.0000  0.0000  0.0000  0.0000
    17. (1.99982) CR ( 1) O   4           s(100.00%)p 0.00(  0.00%)
                                            1.0000  0.0002  0.0000  0.0000  0.0000
                                            0.0002  0.0000  0.0000  0.0000  0.0000
                                            0.0000 -0.0001  0.0000  0.0000  0.0000
                                            0.0000  0.0000  0.0000  0.0000
    18. (1.99929) CR ( 1) C   5           s(100.00%)p 0.00(  0.00%)
                                            1.0000 -0.0001  0.0000  0.0000  0.0000
                                           -0.0004  0.0000  0.0000 -0.0002  0.0000
                                            0.0000  0.0001  0.0000  0.0000  0.0000
                                            0.0000  0.0000  0.0000  0.0000
    19. (1.99984) CR ( 1) O   6           s(100.00%)p 0.00(  0.00%)
                                            1.0000  0.0001  0.0000  0.0000  0.0000
                                            0.0000  0.0000  0.0000  0.0001  0.0000
                                            0.0000 -0.0001  0.0000  0.0000  0.0000
                                            0.0000  0.0000  0.0000  0.0000
    20. (1.94065) LP ( 1) N   1           s(  0.01%)p99.99( 99.99%)d 0.11(  0.00%)
                                            0.0000  0.0071  0.0090 -0.0006 -0.0001
                                           -0.6098  0.0330 -0.0030 -0.4310  0.0257
                                           -0.0042 -0.6625  0.0370 -0.0097  0.0026
                                           -0.0002  0.0007  0.0002 -0.0026
    21. (1.98506) LP ( 1) O   4           s( 63.12%)p 0.58( 36.84%)d 0.00(  0.04%)
                                           -0.0003  0.7943  0.0135 -0.0014  0.0011
                                            0.4459 -0.0015  0.0011  0.0173 -0.0027
                                           -0.0007 -0.4114  0.0037 -0.0006  0.0011
                                            0.0185  0.0013 -0.0088 -0.0029
    22. (1.90554) LP ( 2) O   4           s(  0.15%)p99.99( 99.67%)d 1.17(  0.18%)
                                            0.0000  0.0382 -0.0026 -0.0071 -0.0017
                                           -0.3473 -0.0068  0.0020  0.8974  0.0148
                                           -0.0008 -0.2654 -0.0040 -0.0010 -0.0268
                                           -0.0019  0.0265  0.0121 -0.0143
    23. (1.98059) LP ( 1) O   6           s( 48.74%)p 1.05( 51.20%)d 0.00(  0.06%)
                                            0.0000  0.6978  0.0212  0.0002  0.0001
                                           -0.1001 -0.0014 -0.0002 -0.7008 -0.0120
                                           -0.0002 -0.1029 -0.0027 -0.0089 -0.0068
                                           -0.0004 -0.0049  0.0160  0.0164
    24. (1.95667) LP ( 2) O   6           s(  0.36%)p99.99( 99.54%)d 0.27(  0.10%)
                                            0.0000  0.0593  0.0010  0.0088  0.0007
                                           -0.9777 -0.0280 -0.0045  0.1938  0.0077
                                            0.0070  0.0328 -0.0013  0.0004 -0.0272
                                           -0.0028  0.0009 -0.0142  0.0024
    25. (0.00484) RY*( 1) N   1           s(  2.66%)p35.31( 93.97%)d 1.26(  3.37%)
                                            0.0000 -0.0006  0.1558  0.0476 -0.0096
                                            0.0346  0.5839  0.1411  0.0189  0.4787
                                            0.0360  0.0355  0.5845  0.0627 -0.0866
                                            0.0497 -0.0034  0.0055  0.1538
    26. (0.00225) RY*( 2) N   1           s(  4.12%)p22.29( 91.89%)d 0.97(  3.98%)
                                            0.0000 -0.0057  0.1987 -0.0350 -0.0218
                                            0.0095 -0.5394 -0.2468 -0.0247  0.7048
                                            0.2598  0.0075 -0.0442  0.0092  0.1074
                                           -0.1037  0.0166  0.1025  0.0824
    27. (0.00093) RY*( 3) N   1           s( 34.23%)p 1.63( 55.97%)d 0.29(  9.80%)
                                            0.0000 -0.0058  0.5792 -0.0772 -0.0288
                                            0.0012  0.1815  0.3451 -0.0197  0.1880
                                           -0.1072  0.0115 -0.5071 -0.3212 -0.1420
                                            0.1247  0.0186 -0.1646 -0.1866
    28. (0.00034) RY*( 4) N   1           s( 60.95%)p 0.48( 29.08%)d 0.16(  9.98%)
                                            0.0000  0.0126  0.5002  0.5992 -0.0012
                                            0.0035 -0.0836 -0.2842  0.0192 -0.1895
                                           -0.3630 -0.0055  0.1784 -0.0556  0.2921
                                            0.0095  0.0821  0.0580  0.0651
    29. (0.00028) RY*( 5) N   1           s( 62.14%)p 0.50( 31.37%)d 0.10(  6.48%)
                                            0.0000  0.0002 -0.5389  0.5754  0.0012
                                            0.0026  0.0673  0.0412 -0.0285  0.3735
                                           -0.2777  0.0162 -0.2483 -0.1679 -0.1895
                                            0.0196  0.1117  0.0295 -0.1233
    30. (0.00010) RY*( 6) N   1           s( 15.16%)p 4.83( 73.29%)d 0.76( 11.55%)
    31. (0.00004) RY*( 7) N   1           s(  1.66%)p48.09( 79.92%)d11.08( 18.42%)
    32. (0.00002) RY*( 8) N   1           s(  2.93%)p 1.91(  5.60%)d31.24( 91.48%)
    33. (0.00001) RY*( 9) N   1           s( 19.69%)p 4.06( 80.00%)d 0.02(  0.30%)
    34. (0.00001) RY*(10) N   1           s(  5.59%)p 2.51( 14.04%)d14.37( 80.36%)
    35. (0.00001) RY*(11) N   1           s(  0.46%)p10.42(  4.80%)d99.99( 94.74%)
    36. (0.00000) RY*(12) N   1           s(  0.52%)p47.10( 24.64%)d99.99( 74.84%)
    37. (0.00000) RY*(13) N   1           s( 89.53%)p 0.08(  7.54%)d 0.03(  2.93%)
    38. (0.00001) RY*(14) N   1           s(  0.41%)p19.30(  7.92%)d99.99( 91.67%)
    39. (0.00456) RY*( 1) C   2           s(  1.25%)p73.54( 91.81%)d 5.56(  6.94%)
                                            0.0000  0.0066  0.0379  0.1045  0.0093
                                           -0.0014  0.5737 -0.0129  0.0164 -0.1193
                                            0.0783  0.0153 -0.7533 -0.0214 -0.0314
                                            0.0573 -0.0679 -0.1442 -0.1993
    40. (0.00290) RY*( 2) C   2           s(  0.86%)p93.55( 80.84%)d21.18( 18.30%)
                                            0.0000  0.0168 -0.0505  0.0762 -0.0034
                                            0.0120 -0.2600  0.0868  0.0168  0.7966
                                            0.0835 -0.0006 -0.2901 -0.0848  0.3355
                                           -0.1720  0.0508  0.0200 -0.1946
    41. (0.00169) RY*( 3) C   2           s( 26.45%)p 0.76( 20.06%)d 2.02( 53.49%)
                                            0.0000  0.0129  0.4829  0.1752  0.0205
                                           -0.0066  0.0030  0.0010  0.0070  0.3185
                                           -0.2698 -0.0287 -0.1573 -0.0272 -0.3246
                                            0.1999 -0.1079  0.0334  0.6138
    42. (0.00109) RY*( 4) C   2           s(  6.07%)p13.26( 80.53%)d 2.21( 13.40%)
                                            0.0000 -0.0103 -0.1467  0.1973  0.0125
                                           -0.0032 -0.6132 -0.1563 -0.0089 -0.3521
                                           -0.1935  0.0205 -0.4569  0.1848 -0.0244
                                           -0.2515 -0.2181  0.1299  0.0755
    43. (0.00060) RY*( 5) C   2           s( 11.38%)p 2.36( 26.80%)d 5.43( 61.82%)
                                            0.0000 -0.0017 -0.1053  0.3202  0.0129
                                           -0.0023 -0.1144 -0.0221  0.0208  0.0207
                                            0.4638 -0.0085 -0.0523 -0.1889 -0.4948
                                            0.1612  0.3159  0.4823 -0.1226
    44. (0.00042) RY*( 6) C   2           s( 52.17%)p 0.48( 24.89%)d 0.44( 22.94%)
                                            0.0000 -0.0003  0.6987 -0.1801 -0.0330
                                           -0.0010 -0.2891 -0.2267  0.0163 -0.1638
                                            0.1886 -0.0162 -0.0598 -0.2179 -0.0205
                                           -0.1163  0.2493 -0.2864 -0.2669
    45. (0.00031) RY*( 7) C   2           s( 25.65%)p 0.46( 11.80%)d 2.44( 62.55%)
                                            0.0000 -0.0012 -0.2954  0.4044  0.0758
                                           -0.0071  0.0066 -0.2461 -0.0145 -0.0543
                                            0.0905 -0.0020  0.0186 -0.2136  0.1489
                                           -0.0871  0.4288 -0.5108  0.3884
    46. (0.00026) RY*( 8) C   2           s(  0.44%)p99.99( 66.83%)d74.22( 32.73%)
                                            0.0000  0.0066  0.0595 -0.0188 -0.0216
                                           -0.0016  0.2934 -0.6370  0.0047  0.1826
                                            0.0917 -0.0042  0.1198  0.3468 -0.1098
                                           -0.5222 -0.0103  0.2002  0.0493
    47. (0.00011) RY*( 9) C   2           s(  7.34%)p 1.97( 14.47%)d10.65( 78.19%)
                                            0.0000  0.0003  0.2206  0.0118  0.1569
                                            0.0168  0.1484  0.0860 -0.0021 -0.2314
                                            0.0273 -0.0132 -0.0597 -0.2387  0.5848
                                           -0.1390  0.1853  0.5550  0.2797
    48. (0.00011) RY*(10) C   2           s( 51.34%)p 0.59( 30.51%)d 0.35( 18.15%)
                                            0.0000 -0.0082  0.2527  0.5652 -0.3606
                                           -0.0010  0.0430  0.2862 -0.0123 -0.0816
                                            0.3746  0.0037  0.1940  0.1910  0.1581
                                           -0.1603 -0.3459 -0.1057 -0.0024
    49. (0.00005) RY*(11) C   2           s(  9.77%)p 6.81( 66.54%)d 2.43( 23.69%)
    50. (0.00001) RY*(12) C   2           s( 86.43%)p 0.07(  6.11%)d 0.09(  7.47%)
    51. (0.00001) RY*(13) C   2           s( 19.20%)p 2.35( 45.15%)d 1.86( 35.65%)
    52. (0.00001) RY*(14) C   2           s(  1.59%)p21.40( 34.00%)d40.54( 64.42%)
    53. (0.01073) RY*( 1) C   3           s( 24.46%)p 3.04( 74.48%)d 0.04(  1.06%)
                                            0.0000  0.0476  0.4879  0.0288 -0.0586
                                            0.0669  0.5979 -0.0122 -0.0136  0.0081
                                           -0.0102 -0.0543 -0.6159 -0.0045 -0.0494
                                           -0.0217  0.0657  0.0514 -0.0271
    54. (0.00404) RY*( 2) C   3           s( 30.24%)p 0.84( 25.40%)d 1.47( 44.37%)
                                            0.0000 -0.0044  0.5423 -0.0739  0.0527
                                            0.0140 -0.4053 -0.1676  0.0279  0.1908
                                            0.0955 -0.0142 -0.0737  0.0974  0.4016
                                            0.0105 -0.3839 -0.2639  0.2554
    55. (0.00268) RY*( 3) C   3           s( 10.33%)p 7.19( 74.28%)d 1.49( 15.39%)
                                            0.0000 -0.0040  0.2610  0.1651  0.0890
                                            0.0352 -0.4646  0.2428  0.0118 -0.6124
                                            0.0280  0.0087 -0.2187 -0.2073 -0.2069
                                            0.0422  0.2968 -0.1440 -0.0219
    56. (0.00162) RY*( 4) C   3           s(  5.71%)p11.99( 68.42%)d 4.53( 25.87%)
                                            0.0000  0.0083  0.2141 -0.0990 -0.0371
                                           -0.0003  0.3779  0.0605  0.0108 -0.5142
                                            0.0704 -0.0409  0.4724 -0.2084  0.1374
                                            0.2175 -0.4104 -0.0407 -0.1498
    57. (0.00070) RY*( 5) C   3           s( 13.21%)p 2.92( 38.57%)d 3.65( 48.22%)
                                            0.0000 -0.0098  0.3086 -0.0137  0.1913
                                           -0.0038 -0.2148  0.1051 -0.0137  0.3582
                                           -0.2000 -0.0166  0.0829 -0.3909 -0.0698
                                            0.1241 -0.0589  0.4900 -0.4674
    58. (0.00032) RY*( 6) C   3           s( 85.83%)p 0.11(  9.60%)d 0.05(  4.56%)
                                            0.0000  0.0033  0.0584  0.9223 -0.0653
                                           -0.0045  0.0752 -0.2110 -0.0016  0.0881
                                            0.0557 -0.0027  0.1654 -0.0874  0.0767
                                            0.1498  0.0447  0.0425  0.1162
    59. (0.00019) RY*( 7) C   3           s( 17.47%)p 2.44( 42.65%)d 2.28( 39.88%)
                                            0.0000 -0.0066  0.4126 -0.0661 -0.0064
                                            0.0104  0.0803  0.2710 -0.0039  0.2250
                                            0.0597 -0.0181  0.4418  0.3110 -0.5057
                                            0.1070  0.2122 -0.0459  0.2908
    60. (0.00011) RY*( 8) C   3           s( 11.64%)p 6.83( 79.56%)d 0.76(  8.79%)
                                            0.0000  0.0054  0.0907 -0.0772  0.3197
                                            0.0076 -0.0268 -0.6041  0.0003 -0.2799
                                           -0.4763  0.0086  0.0533  0.3489 -0.0918
                                            0.1545  0.0898  0.2138  0.0434
    61. (0.00005) RY*( 9) C   3           s( 24.83%)p 0.67( 16.53%)d 2.36( 58.64%)
    62. (0.00002) RY*(10) C   3           s( 15.09%)p 0.50(  7.52%)d 5.13( 77.39%)
    63. (0.00001) RY*(11) C   3           s( 46.45%)p 0.14(  6.68%)d 1.01( 46.87%)
    64. (0.00001) RY*(12) C   3           s(  6.82%)p 2.42( 16.53%)d11.24( 76.65%)
    65. (0.00001) RY*(13) C   3           s(  5.29%)p14.62( 77.39%)d 3.27( 17.32%)
    66. (0.00001) RY*(14) C   3           s(  2.35%)p26.78( 63.04%)d14.70( 34.61%)
    67. (0.00454) RY*( 1) O   4           s(  2.53%)p38.48( 97.45%)d 0.01(  0.02%)
                                            0.0000  0.0025  0.1467  0.0565 -0.0242
                                           -0.0137  0.4000 -0.0079  0.0150 -0.8685
                                            0.0262  0.0019  0.2427 -0.0131  0.0072
                                            0.0029 -0.0026 -0.0078  0.0072
    68. (0.00100) RY*( 2) O   4           s( 75.17%)p 0.29( 21.52%)d 0.04(  3.31%)
                                            0.0000  0.0073  0.8573  0.0888 -0.0933
                                           -0.0284 -0.2040 -0.0269 -0.0058 -0.0447
                                           -0.0203  0.0173 -0.3828 -0.1509 -0.0146
                                            0.1788  0.0111 -0.0284  0.0041
    69. (0.00087) RY*( 3) O   4           s( 11.96%)p 7.04( 84.19%)d 0.32(  3.84%)
                                            0.0000  0.0030  0.3388  0.0437 -0.0541
                                           -0.0034  0.6475  0.1935  0.0025  0.4719
                                            0.0456  0.0178  0.4002  0.0006  0.0038
                                            0.0464  0.0617 -0.1507 -0.0987
    70. (0.00019) RY*( 4) O   4           s( 10.62%)p 7.18( 76.25%)d 1.24( 13.13%)
                                            0.0000 -0.0028  0.1565  0.2854  0.0152
                                            0.0030 -0.0806 -0.7816  0.0040  0.0998
                                            0.0600 -0.0105  0.3066  0.1934  0.1691
                                           -0.2216  0.1275  0.1060  0.1616
    71. (0.00011) RY*( 5) O   4           s(  7.97%)p 9.35( 74.46%)d 2.21( 17.57%)
                                            0.0000  0.0107  0.1096 -0.1481  0.2135
                                           -0.0266 -0.5099  0.1205  0.0063 -0.0413
                                            0.0704  0.0234  0.6494 -0.2011  0.1413
                                            0.2895 -0.1276 -0.2350 -0.0219
    72. (0.00009) RY*( 6) O   4           s( 73.54%)p 0.14( 10.00%)d 0.22( 16.46%)
    73. (0.00001) RY*( 7) O   4           s(  8.97%)p 9.98( 89.44%)d 0.18(  1.60%)
    74. (0.00002) RY*( 8) O   4           s(  2.49%)p29.59( 73.56%)d 9.64( 23.96%)
    75. (0.00002) RY*( 9) O   4           s( 11.24%)p 0.87(  9.83%)d 7.02( 78.93%)
    76. (0.00001) RY*(10) O   4           s(  5.75%)p 0.40(  2.32%)d16.00( 91.93%)
    77. (0.00001) RY*(11) O   4           s(  6.02%)p 3.71( 22.33%)d11.90( 71.65%)
    78. (0.00000) RY*(12) O   4           s( 80.21%)p 0.10(  7.66%)d 0.15( 12.12%)
    79. (0.00000) RY*(13) O   4           s(  2.72%)p 7.91( 21.55%)d27.80( 75.72%)
    80. (0.00000) RY*(14) O   4           s(  0.77%)p13.38( 10.36%)d99.99( 88.87%)
    81. (0.00475) RY*( 1) C   5           s(  3.67%)p24.12( 88.59%)d 2.11(  7.74%)
                                            0.0000  0.0271  0.1663  0.0880 -0.0240
                                           -0.0308 -0.3531 -0.0477 -0.0217 -0.7444
                                           -0.0583 -0.0395 -0.4121 -0.1690  0.1603
                                            0.1814 -0.0179  0.0365 -0.1308
    82. (0.00241) RY*( 2) C   5           s(  7.38%)p 8.89( 65.68%)d 3.65( 26.93%)
                                            0.0000 -0.0006  0.2320 -0.1386 -0.0289
                                            0.0024  0.3243  0.1087  0.0101 -0.5739
                                            0.1142 -0.0199  0.4182  0.1483 -0.1733
                                           -0.4403 -0.0234 -0.1619  0.1366
    83. (0.00159) RY*( 3) C   5           s( 20.68%)p 1.27( 26.21%)d 2.57( 53.12%)
                                            0.0000  0.0072  0.4491 -0.0028 -0.0708
                                            0.0074 -0.1011  0.0747 -0.0327  0.1888
                                           -0.2490 -0.0085 -0.2919  0.2493 -0.2688
                                           -0.2659  0.4641 -0.2197 -0.3529
    84. (0.00121) RY*( 4) C   5           s(  0.32%)p99.99( 75.52%)d75.51( 24.16%)
                                            0.0000  0.0040  0.0069  0.0489  0.0272
                                            0.0048 -0.5520 -0.1202 -0.0081  0.0512
                                           -0.2536 -0.0173  0.5158 -0.3205 -0.1442
                                           -0.2750 -0.1831  0.1235 -0.3105
    85. (0.00091) RY*( 5) C   5           s(  8.33%)p 2.98( 24.85%)d 8.02( 66.82%)
                                            0.0000  0.0112  0.2838 -0.0416  0.0300
                                            0.0031 -0.1754  0.0271 -0.0155  0.1535
                                            0.1968 -0.0271 -0.3895 -0.0442 -0.3885
                                           -0.2890 -0.4739  0.2487  0.3839
    86. (0.00055) RY*( 6) C   5           s( 59.34%)p 0.18( 10.39%)d 0.51( 30.27%)
                                            0.0000  0.0031 -0.3176  0.7014  0.0239
                                            0.0080 -0.1154 -0.0015  0.0057  0.0009
                                            0.2656  0.0009 -0.1207  0.0735  0.0900
                                           -0.3950 -0.0336 -0.3707 -0.0015
    87. (0.00018) RY*( 7) C   5           s( 27.52%)p 1.78( 49.07%)d 0.85( 23.41%)
                                            0.0000 -0.0090  0.4890  0.1810  0.0572
                                           -0.0017  0.4371 -0.3357 -0.0051  0.1488
                                           -0.0248 -0.0244 -0.0399 -0.4025  0.3646
                                           -0.0987 -0.2231 -0.0774 -0.1888
    88. (0.00012) RY*( 8) C   5           s( 33.09%)p 1.36( 45.11%)d 0.66( 21.80%)
                                            0.0000  0.0009  0.1444  0.5514 -0.0776
                                            0.0067  0.2233  0.5217 -0.0022 -0.0352
                                           -0.2829 -0.0012  0.1198 -0.1829 -0.3057
                                            0.3021 -0.0277  0.1711  0.0567
    89. (0.00007) RY*( 9) C   5           s( 14.37%)p 4.12( 59.15%)d 1.84( 26.48%)
    90. (0.00004) RY*(10) C   5           s(  1.78%)p37.27( 66.41%)d17.85( 31.81%)
    91. (0.00001) RY*(11) C   5           s(  5.00%)p 9.00( 44.98%)d10.01( 50.03%)
    92. (0.00000) RY*(12) C   5           s( 93.42%)p 0.03(  2.73%)d 0.04(  3.85%)
    93. (0.00001) RY*(13) C   5           s(  0.68%)p16.33( 11.19%)d99.99( 88.13%)
    94. (0.00001) RY*(14) C   5           s( 24.34%)p 1.26( 30.62%)d 1.85( 45.04%)
    95. (0.00289) RY*( 1) O   6           s(  0.51%)p99.99( 96.67%)d 5.57(  2.83%)
                                            0.0000 -0.0010 -0.0411  0.0580 -0.0045
                                            0.0246 -0.9761  0.0528 -0.0034  0.0548
                                           -0.0305 -0.0055 -0.0804  0.0058  0.0613
                                            0.1428 -0.0288  0.0547 -0.0171
    96. (0.00194) RY*( 2) O   6           s( 13.45%)p 5.85( 78.76%)d 0.58(  7.78%)
                                            0.0000 -0.0054  0.3583  0.0769 -0.0135
                                            0.0000 -0.0717  0.0616  0.0143 -0.8661
                                            0.1078 -0.0010  0.0916 -0.0913 -0.0157
                                            0.0114  0.1903 -0.0521 -0.1963
    97. (0.00058) RY*( 3) O   6           s( 24.74%)p 2.86( 70.78%)d 0.18(  4.48%)
                                            0.0000  0.0025 -0.3325  0.3677 -0.0400
                                            0.0033  0.0686 -0.0975  0.0084 -0.2766
                                           -0.2194 -0.0288 -0.7519  0.0514 -0.1297
                                           -0.0658 -0.0947  0.0195  0.1196
    98. (0.00016) RY*( 4) O   6           s( 56.03%)p 0.66( 36.84%)d 0.13(  7.12%)
                                            0.0000  0.0044  0.7129  0.2282 -0.0043
                                            0.0085  0.0425  0.3678  0.0353  0.2385
                                           -0.2194 -0.0149 -0.2254 -0.2720 -0.0791
                                            0.0140 -0.1254  0.0804  0.2064
    99. (0.00007) RY*( 5) O   6           s( 13.34%)p 5.11( 68.18%)d 1.39( 18.48%)
   100. (0.00005) RY*( 6) O   6           s( 31.46%)p 0.58( 18.33%)d 1.60( 50.21%)
   101. (0.00001) RY*( 7) O   6           s(  2.18%)p40.71( 88.85%)d 4.11(  8.97%)
   102. (0.00001) RY*( 8) O   6           s( 28.53%)p 0.57( 16.25%)d 1.94( 55.22%)
   103. (0.00000) RY*( 9) O   6           s( 98.13%)p 0.00(  0.17%)d 0.02(  1.70%)
   104. (0.00000) RY*(10) O   6           s( 20.95%)p 3.77( 78.96%)d 0.00(  0.08%)
   105. (0.00000) RY*(11) O   6           s(  0.33%)p13.80(  4.58%)d99.99( 95.08%)
   106. (0.00001) RY*(12) O   6           s(  1.76%)p 3.55(  6.25%)d52.32( 91.99%)
   107. (0.00000) RY*(13) O   6           s(  4.30%)p 1.16(  5.00%)d21.09( 90.70%)
[...]
   2. BD (   1) N   1 - H   7        /140. BD*(   1) C   2 - C   3            0.63    0.99    0.023
   2. BD (   1) N   1 - H   7        /141. BD*(   1) C   2 - C   5            0.81    0.95    0.025
   2. BD (   1) N   1 - H   7        /142. BD*(   1) C   2 - H   9            0.67    0.99    0.023
   3. BD (   1) N   1 - H   8        / 39. RY*(   1) C   2                    1.40    1.53    0.041
   3. BD (   1) N   1 - H   8        /140. BD*(   1) C   2 - C   3            2.10    0.99    0.041
   4. BD (   1) C   2 - C   3        / 26. RY*(   2) N   1                    0.57    1.77    0.028
   4. BD (   1) C   2 - C   3        / 67. RY*(   1) O   4                    1.64    1.38    0.043
   4. BD (   1) C   2 - C   3        / 81. RY*(   1) C   5                    0.59    1.35    0.025
   4. BD (   1) C   2 - C   3        /139. BD*(   1) N   1 - H   8            2.57    1.04    0.046
   4. BD (   1) C   2 - C   3        /148. BD*(   1) C   5 - H  11            1.35    1.05    0.034
   5. BD (   1) C   2 - C   5        / 25. RY*(   1) N   1                    0.95    1.13    0.029
   5. BD (   1) C   2 - C   5        / 55. RY*(   3) C   3                    0.72    1.52    0.030
   5. BD (   1) C   2 - C   5        / 95. RY*(   1) O   6                    0.70    1.27    0.027
   5. BD (   1) C   2 - C   5        /138. BD*(   1) N   1 - H   7            1.55    1.02    0.036
   5. BD (   1) C   2 - C   5        /143. BD*(   1) C   3 - O   4            1.10    1.13    0.032
   5. BD (   1) C   2 - C   5        /144. BD*(   2) C   3 - O   4            2.78    0.60    0.037
   6. BD (   1) C   2 - H   9        / 25. RY*(   1) N   1                    0.87    1.03    0.027
   6. BD (   1) C   2 - H   9        / 56. RY*(   4) C   3                    0.69    1.77    0.032
   6. BD (   1) C   2 - H   9        / 84. RY*(   4) C   5                    0.56    1.54    0.027
   6. BD (   1) C   2 - H   9        /138. BD*(   1) N   1 - H   7            1.64    0.92    0.035
   6. BD (   1) C   2 - H   9        /143. BD*(   1) C   3 - O   4            1.56    1.03    0.036
   6. BD (   1) C   2 - H   9        /144. BD*(   2) C   3 - O   4            5.19    0.50    0.045
   6. BD (   1) C   2 - H   9        /146. BD*(   1) C   5 - O   6            4.02    0.79    0.051
   7. BD (   1) C   3 - O   4        / 53. RY*(   1) C   3                    1.12    1.77    0.040
   8. BD (   2) C   3 - O   4        /141. BD*(   1) C   2 - C   5            1.71    0.72    0.032
   8. BD (   2) C   3 - O   4        /142. BD*(   1) C   2 - H   9            1.38    0.76    0.029
   9. BD (   1) C   3 - H  13        / 39. RY*(   1) C   2                    1.10    1.49    0.036
   9. BD (   1) C   3 - H  13        / 67. RY*(   1) O   4                    0.92    1.30    0.031
   9. BD (   1) C   3 - H  13        /137. BD*(   1) N   1 - C   2            3.09    0.94    0.048
  10. BD (   1) C   5 - O   6        / 39. RY*(   1) C   2                    0.62    1.72    0.029
  10. BD (   1) C   5 - O   6        /142. BD*(   1) C   2 - H   9            0.94    1.19    0.030
  11. BD (   1) C   5 - H  10        / 42. RY*(   4) C   2                    0.55    1.42    0.025
  11. BD (   1) C   5 - H  10        / 96. RY*(   2) O   6                    0.61    1.26    0.025
  11. BD (   1) C   5 - H  10        /137. BD*(   1) N   1 - C   2            3.90    0.87    0.052
  11. BD (   1) C   5 - H  10        /149. BD*(   1) O   6 - H  12            2.48    1.00    0.045
  12. BD (   1) C   5 - H  11        /140. BD*(   1) C   2 - C   3            2.62    0.90    0.044
  13. BD (   1) O   6 - H  12        / 81. RY*(   1) C   5                    1.39    1.41    0.040
  13. BD (   1) O   6 - H  12        / 85. RY*(   5) C   5                    0.54    2.42    0.032
  13. BD (   1) O   6 - H  12        /147. BD*(   1) C   5 - H  10            2.88    1.12    0.051
  14. CR (   1) N   1                / 40. RY*(   2) C   2                    1.01   15.11    0.111
  14. CR (   1) N   1                / 41. RY*(   3) C   2                    0.70   15.84    0.094
  15. CR (   1) C   2                / 87. RY*(   7) C   5                    0.54   11.20    0.069
  15. CR (   1) C   2                /138. BD*(   1) N   1 - H   7            0.54   10.52    0.067
  15. CR (   1) C   2                /139. BD*(   1) N   1 - H   8            0.53   10.50    0.067
  16. CR (   1) C   3                / 40. RY*(   2) C   2                    0.93   11.08    0.091
  17. CR (   1) O   4                / 53. RY*(   1) C   3                    4.59   19.68    0.269
  18. CR (   1) C   5                / 42. RY*(   4) C   2                    0.58   11.04    0.071
  18. CR (   1) C   5                / 44. RY*(   6) C   2                    0.52   11.40    0.069
  18. CR (   1) C   5                /146. BD*(   1) C   5 - O   6            1.16   10.41    0.098
  19. CR (   1) O   6                / 81. RY*(   1) C   5                    1.41   19.67    0.149
  20. LP (   1) N   1                / 40. RY*(   2) C   2                    0.51    1.14    0.022
  20. LP (   1) N   1                / 41. RY*(   3) C   2                    0.69    1.87    0.033
  20. LP (   1) N   1                /110. RY*(   2) H   7                    0.74    2.47    0.039
  20. LP (   1) N   1                /113. RY*(   1) H   8                    0.67    1.80    0.032
  20. LP (   1) N   1                /114. RY*(   2) H   8                    0.54    1.56    0.026
  20. LP (   1) N   1                /141. BD*(   1) C   2 - C   5            6.02    0.58    0.053
  20. LP (   1) N   1                /142. BD*(   1) C   2 - H   9            6.19    0.62    0.056
  20. LP (   1) N   1                /144. BD*(   2) C   3 - O   4            0.56    0.22    0.010
  20. LP (   1) N   1                /147. BD*(   1) C   5 - H  10            0.92    0.63    0.022
  20. LP (   1) N   1                /149. BD*(   1) O   6 - H  12            0.70    0.72    0.020
  21. LP (   1) O   4                / 53. RY*(   1) C   3                   10.65    1.49    0.113
  21. LP (   1) O   4                /140. BD*(   1) C   2 - C   3            0.90    1.11    0.029
  21. LP (   1) O   4                /145. BD*(   1) C   3 - H  13            1.08    1.18    0.032
  22. LP (   2) O   4                / 54. RY*(   2) C   3                    1.34    1.86    0.045
  22. LP (   2) O   4                /138. BD*(   1) N   1 - H   7            1.15    0.68    0.026
  22. LP (   2) O   4                /140. BD*(   1) C   2 - C   3           16.66    0.66    0.094
  22. LP (   2) O   4                /145. BD*(   1) C   3 - H  13           15.79    0.73    0.097
  23. LP (   1) O   6                / 81. RY*(   1) C   5                    2.14    1.29    0.047
  23. LP (   1) O   6                / 83. RY*(   3) C   5                    0.70    2.29    0.036
  23. LP (   1) O   6                /131. RY*(   3) H  12                    0.65    2.98    0.039
  23. LP (   1) O   6                /141. BD*(   1) C   2 - C   5            0.75    0.94    0.024
  23. LP (   1) O   6                /147. BD*(   1) C   5 - H  10            1.23    1.00    0.031
  23. LP (   1) O   6                /148. BD*(   1) C   5 - H  11            1.67    1.00    0.036
  24. LP (   2) O   6                / 81. RY*(   1) C   5                    0.65    1.00    0.023
  24. LP (   2) O   6                /130. RY*(   2) H  12                    1.60    2.60    0.058
  24. LP (   2) O   6                /141. BD*(   1) C   2 - C   5            7.28    0.65    0.061
  24. LP (   2) O   6                /142. BD*(   1) C   2 - H   9            0.70    0.69    0.020
  24. LP (   2) O   6                /148. BD*(   1) C   5 - H  11            4.72    0.70    0.052


 Natural Bond Orbitals (Summary):

                                                            Principal Delocalizations
           NBO                        Occupancy    Energy   (geminal,vicinal,remote)
 ====================================================================================
 Molecular unit  1  (C3H7NO2)
     1. BD (   1) N   1 - C   2          1.99281    -0.74964  145(v),147(v),53(v)
     2. BD (   1) N   1 - H   7          1.99252    -0.61415  40(v),141(v),142(v),140(v)
     3. BD (   1) N   1 - H   8          1.99228    -0.61883  140(v),39(v)
     4. BD (   1) C   2 - C   3          1.98352    -0.66557  139(v),67(v),148(v),81(v)
                                                    26(v)
     5. BD (   1) C   2 - C   5          1.97204    -0.62368  144(v),138(v),143(v),25(v)
                                                    55(v),95(v)
     6. BD (   1) C   2 - H   9          1.95102    -0.52196  144(v),146(v),138(v),143(v)
                                                    25(v),56(v),84(v)
     7. BD (   1) C   3 - O   4          1.99701    -1.01715  53(g)
     8. BD (   2) C   3 - O   4          1.99129    -0.38513  141(v),142(v)
     9. BD (   1) C   3 - H  13          1.98916    -0.58624  137(v),39(v),67(v)
    10. BD (   1) C   5 - O   6          1.99601    -0.81744  142(v),39(v)
    11. BD (   1) C   5 - H  10          1.98035    -0.52313  137(v),149(v),96(v),42(v)
    12. BD (   1) C   5 - H  11          1.98718    -0.52716  140(v)
    13. BD (   1) O   6 - H  12          1.98935    -0.72869  147(v),81(v),85(v)
    14. CR (   1) N   1                  1.99963   -14.20664  40(v),41(v)
    15. CR (   1) C   2                  1.99922   -10.12055  138(v),87(v),139(v)
    16. CR (   1) C   3                  1.99943   -10.17850  40(v)
    17. CR (   1) O   4                  1.99982   -18.92973  53(v)
    18. CR (   1) C   5                  1.99929   -10.14288  146(g),42(v),44(v)
    19. CR (   1) O   6                  1.99984   -18.98043  81(v)
    20. LP (   1) N   1                  1.94065    -0.24234  142(v),141(v),147(r),110(v)
                                                    149(r),41(v),113(v),144(r)
                                                    114(v),40(v)
    21. LP (   1) O   4                  1.98506    -0.73844  53(v),145(v),140(v)
    22. LP (   2) O   4                  1.90554    -0.28540  140(v),145(v),54(v),138(r)
    23. LP (   1) O   6                  1.98059    -0.60718  81(v),148(v),147(v),141(v)
                                                    83(v),131(v)
    24. LP (   2) O   6                  1.95667    -0.31065  141(v),148(v),130(v),142(r)
                                                    81(v)
    25. RY*(   1) N   1                  0.00484     0.50897   
    26. RY*(   2) N   1                  0.00225     1.10022   
    27. RY*(   3) N   1                  0.00093     1.15421   
    28. RY*(   4) N   1                  0.00034     0.70387   
    29. RY*(   5) N   1                  0.00028     1.29833   
    30. RY*(   6) N   1                  0.00010     1.00925   
    31. RY*(   7) N   1                  0.00004     0.86553   
    32. RY*(   8) N   1                  0.00002     2.08033   
    33. RY*(   9) N   1                  0.00001     0.63028   
    34. RY*(  10) N   1                  0.00001     1.92342   
    35. RY*(  11) N   1                  0.00001     2.26479   
    36. RY*(  12) N   1                  0.00000     1.77624   
    37. RY*(  13) N   1                  0.00000     3.79319   
    38. RY*(  14) N   1                  0.00001     1.95295   
    39. RY*(   1) C   2                  0.00456     0.90679   
    40. RY*(   2) C   2                  0.00290     0.89945   
    41. RY*(   3) C   2                  0.00169     1.63183   
    42. RY*(   4) C   2                  0.00109     0.89428   
    43. RY*(   5) C   2                  0.00060     1.46476   
    44. RY*(   6) C   2                  0.00042     1.25765   
    45. RY*(   7) C   2                  0.00031     1.72091   
    46. RY*(   8) C   2                  0.00026     1.02452   
    47. RY*(   9) C   2                  0.00011     1.96465   
    48. RY*(  10) C   2                  0.00011     1.57255   
    49. RY*(  11) C   2                  0.00005     0.94585   
    50. RY*(  12) C   2                  0.00001     3.72979   
    51. RY*(  13) C   2                  0.00001     1.05069   
    52. RY*(  14) C   2                  0.00001     1.42292   
    53. RY*(   1) C   3                  0.01073     0.75122   
    54. RY*(   2) C   3                  0.00404     1.57003   
    55. RY*(   3) C   3                  0.00268     0.89137   
    56. RY*(   4) C   3                  0.00162     1.24770   
    57. RY*(   5) C   3                  0.00070     1.47919   
    58. RY*(   6) C   3                  0.00032     0.65542   
    59. RY*(   7) C   3                  0.00019     1.22800   
    60. RY*(   8) C   3                  0.00011     0.99334   
    61. RY*(   9) C   3                  0.00005     2.50267   
    62. RY*(  10) C   3                  0.00002     2.50388   
    63. RY*(  11) C   3                  0.00001     2.71209   
    64. RY*(  12) C   3                  0.00001     1.78671   
    65. RY*(  13) C   3                  0.00001     0.61125   
    66. RY*(  14) C   3                  0.00001     0.98116   
    67. RY*(   1) O   4                  0.00454     0.71092   
    68. RY*(   2) O   4                  0.00100     0.62207   
    69. RY*(   3) O   4                  0.00087     0.49312   
    70. RY*(   4) O   4                  0.00019     0.84647   
    71. RY*(   5) O   4                  0.00011     1.07828   
    72. RY*(   6) O   4                  0.00009     1.83079   
    73. RY*(   7) O   4                  0.00001     1.03854   
    74. RY*(   8) O   4                  0.00002     1.38125   
    75. RY*(   9) O   4                  0.00002     2.06301   
    76. RY*(  10) O   4                  0.00001     1.91801   
    77. RY*(  11) O   4                  0.00001     2.22773   
    78. RY*(  12) O   4                  0.00000     3.38089   
    79. RY*(  13) O   4                  0.00000     1.62026   
    80. RY*(  14) O   4                  0.00000     1.73146   
    81. RY*(   1) C   5                  0.00475     0.68595   
    82. RY*(   2) C   5                  0.00241     1.12407   
    83. RY*(   3) C   5                  0.00159     1.68491   
    84. RY*(   4) C   5                  0.00121     1.01610   
    85. RY*(   5) C   5                  0.00091     1.69607   
    86. RY*(   6) C   5                  0.00055     1.14339   
    87. RY*(   7) C   5                  0.00018     1.08052   
    88. RY*(   8) C   5                  0.00012     0.96913   
    89. RY*(   9) C   5                  0.00007     1.08577   
    90. RY*(  10) C   5                  0.00004     1.03721   
    91. RY*(  11) C   5                  0.00001     1.27094   
    92. RY*(  12) C   5                  0.00000     3.82409   
    93. RY*(  13) C   5                  0.00001     1.93356   
    94. RY*(  14) C   5                  0.00001     1.51853   
    95. RY*(   1) O   6                  0.00289     0.64645   
    96. RY*(   2) O   6                  0.00194     0.73861   
    97. RY*(   3) O   6                  0.00058     1.02177   
    98. RY*(   4) O   6                  0.00016     0.93561   
    99. RY*(   5) O   6                  0.00007     1.28627   
   100. RY*(   6) O   6                  0.00005     1.71655   
   101. RY*(   7) O   6                  0.00001     0.81447   
   102. RY*(   8) O   6                  0.00001     1.72490   
   103. RY*(   9) O   6                  0.00000     3.99859   
   104. RY*(  10) O   6                  0.00000     0.91595   
   105. RY*(  11) O   6                  0.00000     2.03219   
   106. RY*(  12) O   6                  0.00001     2.59532   
   107. RY*(  13) O   6                  0.00000     2.06104   
   108. RY*(  14) O   6                  0.00000     1.74844   
   109. RY*(   1) H   7                  0.00140     0.73471   
   110. RY*(   2) H   7                  0.00042     2.22654   
   111. RY*(   3) H   7                  0.00010     2.41301   
   112. RY*(   4) H   7                  0.00003     2.93427   
   113. RY*(   1) H   8                  0.00053     1.56124   
   114. RY*(   2) H   8                  0.00045     1.32010   
   115. RY*(   3) H   8                  0.00009     2.40255   
   116. RY*(   4) H   8                  0.00002     2.93904   
   117. RY*(   1) H   9                  0.00185     0.68957   
   118. RY*(   2) H   9                  0.00012     2.38710   
   119. RY*(   3) H   9                  0.00008     2.42718   
   120. RY*(   4) H   9                  0.00001     2.98412   
   121. RY*(   1) H  10                  0.00106     0.64005   
   122. RY*(   2) H  10                  0.00012     2.34681   
   123. RY*(   3) H  10                  0.00006     2.46896   
   124. RY*(   4) H  10                  0.00001     2.89293   
   125. RY*(   1) H  11                  0.00127     0.67109   
   126. RY*(   2) H  11                  0.00010     2.34855   
   127. RY*(   3) H  11                  0.00006     2.38360   
   128. RY*(   4) H  11                  0.00001     2.94552   
   129. RY*(   1) H  12                  0.00229     0.80663   
   130. RY*(   2) H  12                  0.00095     2.28647   
   131. RY*(   3) H  12                  0.00067     2.37621   
   132. RY*(   4) H  12                  0.00001     3.04761   
   133. RY*(   1) H  13                  0.00272     0.59708   
   134. RY*(   2) H  13                  0.00007     2.23446   
   135. RY*(   3) H  13                  0.00003     2.91712   
   136. RY*(   4) H  13                  0.00002     2.61658   
   137. BD*(   1) N   1 - C   2          0.01800     0.34951   
   138. BD*(   1) N   1 - H   7          0.01350     0.39673   
   139. BD*(   1) N   1 - H   8          0.00671     0.37472   
   140. BD*(   1) C   2 - C   3          0.05547     0.37313   
   141. BD*(   1) C   2 - C   5          0.04621     0.33490   
   142. BD*(   1) C   2 - H   9          0.03183     0.37487   
   143. BD*(   1) C   3 - O   4          0.00544     0.51008   
   144. BD*(   2) C   3 - O   4          0.05385    -0.02320   
   145. BD*(   1) C   3 - H  13          0.04212     0.44346   
   146. BD*(   1) C   5 - O   6          0.01327     0.27012   
   147. BD*(   1) C   5 - H  10          0.01907     0.39130   
   148. BD*(   1) C   5 - H  11          0.02349     0.38941   
   149. BD*(   1) O   6 - H  12          0.01030     0.47867   
       -------------------------------
              Total Lewis   47.58027  ( 99.1256%)
        Valence non-Lewis    0.33926  (  0.7068%)
        Rydberg non-Lewis    0.08046  (  0.1676%)
       -------------------------------
            Total unit  1   48.00000  (100.0000%)
           Charge unit  1    0.00000
 Leave Link  607 at Tue Feb  1 05:08:09 2022, MaxMem=  805306368 cpu:      11.8
 (Enter /home/mamin/g09/l9999.exe)
 1\1\GINC-NODE3\SP\RB3LYP\6-31+G(d,p)\C3H7N1O2\ROOT\01-Feb-2022\0\\#p b
 3lyp/6-31+g(d,p) geom=connectivity pop=nbo\\Title Card Required\\0,1\N
 ,0,0.043,-0.056,0.\C,0,1.502,-0.02,0.\C,0,2.009,1.402,0.\O,0,1.1937938
 3,2.36064981,0.\C,0,2.073,-0.829,-1.192\O,0,1.824,-0.207,-2.457\H,0,-0
 .552,0.845,0.\H,0,-0.507,-0.986,0.\H,0,1.854,-0.486,0.939\H,0,3.168,-0
 .947,-1.072\H,0,1.675,-1.862,-1.203\H,0,0.871,-0.178,-2.58\H,0,3.06149
 956,1.59472953,0.\\Version=EM64L-G09RevA.02\State=1-A\HF=-323.7132848\
 RMSD=3.314e-09\Dipole=0.0189029,-1.2062224,0.4486846\Quadrupole=4.2285
 457,-1.7660248,-2.4625209,2.006533,3.3980269,-1.3334757\PG=C01 [X(C3H7
 N1O2)]\\@


 GROWING OLD ISN'T SO BAD -- WHEN YOU CONSIDER THE ALTERNATIVE.

                     -- MAURICE CHEVALIER
 Job cpu time:  0 days  0 hours  3 minutes 35.4 seconds.
 File lengths (MBytes):  RWF=     72 Int=      0 D2E=      0 Chk=      3 Scr=      2
 Normal termination of Gaussian 09 at Tue Feb  1 05:08:10 2022.
